ITEM: TIMESTEP
10000
ITEM: NUMBER OF ATOMS
16384
ITEM: BOX BOUNDS pp pp pp
0.0000000000000000e+00 8.0764399999999995e+01
0.0000000000000000e+00 8.0764399999999995e+01
0.0000000000000000e+00 8.0764399999999995e+01
ITEM: ATOMS id type xs ys zs
685 1 0.0602709 0.113449 0.0695076
1529 1 0.0151922 0.0610124 0.0441005
3078 1 0.042189 0.0134192 0.0232193
12194 1 0.494152 0.25839 0.0400174
4687 1 0.100003 0.0461599 0.0724905
2183 1 0.231335 0.352295 0.480203
7715 1 0.131764 0.462014 0.00381497
6723 1 0.24573 0.436108 0.00392139
1383 1 0.182887 0.0130123 0.331426
3996 1 0.0123984 0.0509802 0.154436
8731 1 0.474413 0.3233 0.468983
1005 1 0.474501 0.228784 0.392866
8342 1 0.0162671 0.266752 0.0802056
2741 1 0.216689 0.0718753 0.0152582
5513 1 0.0546888 0.0280746 0.0575968
494 1 0.458078 0.469861 0.339611
8416 1 0.037269 0.478177 0.29487
4356 1 0.349234 0.45865 0.480964
1484 1 0.231585 0.023632 0.168821
9184 1 0.152137 0.0445695 0.0431804
842 1 0.180144 0.025285 0.0599965
953 1 0.102953 0.0240925 0.0143459
721 1 0.199901 0.0689421 0.0491996
832 1 0.0688116 0.498846 0.161665
2197 1 0.0555307 0.0717298 0.0638639
3123 1 0.480819 0.448028 0.357056
13274 1 0.0172159 0.43769 0.0705793
1177 1 0.0803742 0.0487946 0.0366774
4477 1 0.133927 0.0144853 0.0672968
389 1 0.444198 0.34774 0.190186
974 1 0.0488334 0.158947 0.402229
11393 1 0.218579 0.0201844 0.0634439
8831 1 0.45185 0.0496196 0.134277
537 1 0.145903 0.432565 0.0292845
602 1 0.488785 0.123294 0.200032
301 1 0.0316917 0.49028 0.0362237
7662 1 0.240835 0.0491026 0.102373
814 1 0.224093 0.0996039 0.0416578
470 1 0.288262 0.0851098 0.0361939
1970 1 0.0201724 0.00397945 0.107402
3503 1 0.284026 0.0528354 0.0503275
3625 1 0.26634 0.0857119 0.0947657
1171 1 0.249231 0.0286453 0.00220614
778 1 0.171913 0.135529 0.0764099
2366 1 0.221886 0.0768687 0.0826946
1694 1 0.239515 0.113722 0.0774067
607 1 0.0232214 0.153302 0.141379
2288 1 0.25789 0.110708 0.0244129
191 1 0.226356 0.0400875 0.0321315
7722 1 0.292384 0.0444221 0.141757
968 1 0.0869821 0.00645765 0.0751705
8007 1 0.166748 0.390849 0.0277219
8939 1 0.497921 0.321276 0.234747
3018 1 0.32838 0.0417143 0.0103245
2563 1 0.379663 0.0824844 0.0453007
103 1 0.353233 0.0343561 0.0434159
4575 1 0.313823 0.0750771 0.011501
3145 1 0.249036 0.0701112 0.0549447
5063 1 0.256475 0.146316 0.0848473
6819 1 0.1107 0.036812 0.199469
8121 1 0.326859 0.0262742 0.413585
198 1 0.27964 0.110207 0.0636462
783 1 0.17713 0.23769 0.493338
708 1 0.3288 0.0596663 0.102329
773 1 0.310957 0.0359035 0.0774741
6670 1 0.387106 0.0354723 0.0736169
9398 1 0.020028 0.275964 0.446585
2310 1 0.218511 0.186354 0.48859
1273 1 0.286232 0.0359281 0.00912407
3091 1 0.282848 0.380222 0.00108573
6476 1 0.416204 0.00163286 0.426377
9105 1 0.499134 0.283327 0.228005
12901 1 0.450918 0.0873334 0.0182882
994 1 0.409811 0.0569916 0.0349616
3915 1 0.39013 0.0720314 0.0961027
12929 1 0.423464 0.0471102 0.170522
1552 1 0.252753 0.479671 0.00460856
757 1 0.476316 0.0638316 0.0949103
1483 1 0.44113 0.0806856 0.10864
7857 1 0.25233 0.0272288 0.0748996
446 1 0.0784413 0.4573 0.0752082
7469 1 0.423452 0.0528192 0.0814986
12180 1 0.351959 0.46486 0.018688
9340 1 0.488493 0.322537 0.360544
196 1 0.368478 0.0804947 0.137204
873 1 0.217408 0.471521 0.22333
11990 1 0.401465 0.400759 0.0124116
715 1 0.481777 0.256296 0.422761
1397 1 0.0967014 0.0669494 0.000102541
541 1 0.473577 0.435308 0.43076
1517 1 0.0400038 0.0502101 0.0177375
3967 1 0.331626 0.481765 0.324376
669 1 0.0670654 0.169254 0.0418208
5006 1 0.0278323 0.207823 0.082282
4023 1 0.170265 0.0276497 0.124696
8440 1 0.0218869 0.133791 0.064028
120 1 0.330729 0.1043 0.460037
8709 1 0.454906 0.268464 0.193426
5771 1 0.350332 0.00809064 0.387232
6139 1 0.0506748 0.195361 0.0201212
1623 1 0.111868 0.204092 0.104502
9810 1 0.0632614 0.0804546 0.101233
99 1 0.292768 0.213092 0.49582
488 1 0.0380135 0.0923822 0.0280664
1925 1 0.0770504 0.102575 0.0292243
9333 1 0.00239834 0.106928 0.0435413
3169 1 0.186677 0.129638 0.0223616
3131 1 0.142132 0.198054 0.0599472
3924 1 0.118254 0.102586 0.014998
1498 1 0.346755 0.494572 0.0764303
1545 1 0.120786 0.0557869 0.0295054
5750 1 0.0968498 0.186799 0.0504096
5064 1 0.048582 0.131378 0.0321614
1520 1 0.15427 0.125409 0.0363299
3086 1 0.112826 0.119629 0.0566803
1125 1 0.155464 0.140394 0.109525
1106 1 0.0993642 0.225594 0.0732505
3320 1 0.184121 0.197829 0.0818353
3700 1 0.140252 0.153868 0.0567963
9898 1 0.00276562 0.41178 0.103927
2763 1 0.113995 0.164292 0.0876126
134 1 0.215309 0.162794 0.0933581
3035 1 0.0969032 0.150291 0.0302672
7900 1 0.376966 0.49996 0.0311883
634 1 0.183928 0.163587 0.0502712
1214 1 0.261577 0.0665152 0.0120886
5702 1 0.103179 0.490586 0.35672
2286 1 0.211184 0.136179 0.0631004
3900 1 0.216181 0.164733 0.0328974
284 1 0.230284 0.118447 0.11969
3848 1 0.235176 0.197825 0.0275677
1730 1 0.244123 0.0906238 0.156824
12905 1 0.454202 0.0203533 0.181839
3463 1 0.0987571 0.334376 0.00596528
9859 1 0.141755 0.0174704 0.00965502
2437 1 0.268222 0.190505 0.0521171
1859 1 0.195364 0.20849 0.0389709
3716 1 0.301979 0.130124 0.0314079
12312 1 0.0657353 0.490888 0.419875
3239 1 0.251429 0.139589 0.0495689
4340 1 0.222481 0.124896 0.0115561
2257 1 0.353264 0.0720439 0.014797
10436 1 0.397155 0.14516 0.0215959
5793 1 0.157851 0.0444419 0.482544
4739 1 0.17135 0.00351451 0.0867446
6249 1 0.235493 0.175103 0.0607634
565 1 0.351768 0.0921718 0.105021
1015 1 0.347103 0.166934 0.0760097
3669 1 0.333548 0.14518 0.0453413
9431 1 0.427021 0.116111 0.0100768
398 1 0.33153 0.0992581 0.0312581
13004 1 0.394909 0.023807 0.107702
11759 1 0.416813 0.0831605 0.0620305
3407 1 0.414526 0.120908 0.0489247
1947 1 0.377808 0.176083 0.099332
242 1 0.39359 0.19591 0.0351803
4198 1 0.175796 0.0297832 0.392535
4921 1 0.110644 0.481265 0.0658752
452 1 0.337746 0.129431 0.0897701
2693 1 0.366602 0.133649 0.0631284
1083 1 0.395398 0.164796 0.0587123
3849 1 0.327332 0.0630685 0.05094
369 1 0.409744 0.4835 0.2452
13203 1 0.0610346 0.0210878 0.284519
519 1 0.451474 0.12335 0.0381574
4448 1 0.3362 0.0117719 0.232129
2546 1 0.439741 0.187943 0.049418
10857 1 0.452813 0.0874133 0.0599146
3732 1 0.470752 0.21508 0.0489966
15 1 0.271647 0.461392 0.470079
10916 1 0.473313 0.168681 0.186855
11250 1 0.00998742 0.105154 0.47756
8947 1 0.469666 0.164185 0.0467923
9983 1 0.459103 0.174151 0.0817926
2336 1 0.451447 0.025042 0.0952778
396 1 0.435665 0.147477 0.0656615
6618 1 0.104787 0.34995 0.466141
7811 1 0.451587 0.384143 0.00635544
3599 1 0.418319 0.0121743 0.20384
9823 1 0.4026 0.468779 0.0219198
12488 1 0.0619622 0.213498 0.05333
1395 1 0.0659423 0.223493 0.101323
885 1 0.0103168 0.252669 0.0413903
9531 1 0.155404 0.234732 0.0457452
79 1 0.0486825 0.28264 0.0615793
212 1 0.0785328 0.252593 0.0526658
3076 1 0.0756021 0.270719 0.0992986
246 1 0.0657259 0.279207 0.0244319
10574 1 0.017568 0.292643 0.0415684
8795 1 0.0812491 0.42375 0.491362
10047 1 0.497684 0.189072 0.449085
11814 1 0.0561792 0.237581 0.01518
9384 1 0.117621 0.256344 0.0958669
9581 1 0.0273001 0.317119 0.117
1991 1 0.0415854 0.280116 0.106499
1559 1 0.074918 0.187558 0.0908874
11021 1 0.0414885 0.0170993 0.489771
3542 1 0.179632 0.262082 0.0642219
3006 1 0.302024 0.474709 0.360992
8688 1 0.124009 0.0338939 0.275384
3761 1 0.132451 0.280428 0.062916
9453 1 0.00193749 0.172194 0.242824
14959 1 0.472698 0.491891 0.204345
2215 1 0.122266 0.256058 0.135297
3440 1 0.199385 0.279285 0.136486
1085 1 0.459059 0.118572 0.323654
10768 1 0.49149 0.366764 0.0718906
6384 1 0.286378 0.0271987 0.404473
5346 1 0.319138 0.3905 0.0214557
55 1 0.113572 0.256912 0.0412945
290 1 0.202881 0.329016 0.0483913
1487 1 0.092756 0.284624 0.0637267
1224 1 0.193687 0.260547 0.183833
907 1 0.225957 0.24913 0.122526
3786 1 0.221166 0.207348 0.0778488
2405 1 0.254354 0.240572 0.0153914
7736 1 0.258472 0.226324 0.0542431
1389 1 0.202692 0.290725 0.0568419
4407 1 0.25005 0.00293857 0.399719
1533 1 0.325965 0.229113 0.022537
681 1 0.221747 0.275998 0.0259805
626 1 0.224321 0.235275 0.0429542
5418 1 0.0584603 0.478494 0.197936
4002 1 0.0861232 0.0483458 0.296117
5729 1 0.184704 0.495741 0.22118
1351 1 0.238892 0.315476 0.0200789
3622 1 0.274743 0.188972 0.0904692
1451 1 0.234619 0.25259 0.0818886
4946 1 0.212847 0.494515 0.38233
5733 1 0.016467 0.040519 0.298949
3233 1 0.385154 0.433162 0.0130172
7921 1 0.35171 0.0309174 0.443013
2371 1 0.479074 0.3213 0.0125872
1728 1 0.318553 0.187769 0.0646633
10402 1 0.00399593 0.332812 0.0210189
501 1 0.361518 0.169878 0.0374312
1519 1 0.276183 0.205721 0.0165786
939 1 0.3886 0.204975 0.0786235
3974 1 0.32753 0.184915 0.125049
2845 1 0.281139 0.26016 0.0712238
10655 1 0.485674 0.143163 0.00656772
1327 1 0.0170808 0.233995 0.397974
2602 1 0.351764 0.243109 0.0878769
8798 1 0.417012 0.247672 0.10268
904 1 0.272601 0.163819 0.0203761
455 1 0.349302 0.208926 0.0504067
448 1 0.292205 0.254771 0.0321025
3466 1 0.347769 0.245464 0.0488462
3038 1 0.448427 0.278909 0.0772743
4017 1 0.265294 0.00716822 0.18073
2710 1 0.39426 0.25958 0.0687849
12168 1 0.379551 0.0390177 0.475436
3373 1 0.473064 0.249277 0.0789197
2479 1 0.461503 0.22752 0.0106861
632 1 0.395611 0.312337 0.0229014
8334 1 0.393537 0.0132473 0.0363814
2319 1 0.420913 0.282079 0.0467832
7240 1 0.189952 0.499415 0.00115354
1792 1 0.414446 0.228849 0.0532219
758 1 0.418512 0.284508 0.0987223
644 1 0.0214158 0.470868 0.194541
8922 1 0.484569 0.147244 0.330251
318 1 0.00850876 0.265736 0.251226
1041 1 0.459933 0.309227 0.0437343
1818 1 0.0694735 0.313399 0.0440626
3803 1 0.028494 0.267189 0.00493738
11537 1 0.0794829 0.311748 0.094536
10794 1 0.0291868 0.404743 0.0320275
3184 1 0.318994 0.381002 0.497273
1348 1 0.030743 0.400756 0.0685148
1009 1 0.0347978 0.32779 0.046776
11789 1 0.485227 0.435729 0.0482867
3063 1 0.0668409 0.352803 0.103735
9157 1 0.138704 0.333629 0.0265372
9777 1 0.0651313 0.389651 0.0535757
3052 1 0.0202302 0.30754 0.0803193
864 1 0.0665316 0.35633 0.0638565
8406 1 0.492403 0.160496 0.264597
3117 1 0.382389 0.0193504 0.408835
4006 1 0.240266 0.341499 0.053659
1012 1 0.137582 0.328726 0.0631146
1907 1 0.102946 0.381604 0.0582005
228 1 0.436329 0.4863 0.293359
314 1 0.170581 0.347826 0.0407105
13356 1 0.105752 0.0191198 0.313173
7071 1 0.0985713 0.336668 0.0609862
4898 1 0.134455 0.365263 0.0571488
4237 1 0.23197 0.481534 0.473927
1175 1 0.119444 0.302007 0.0900118
732 1 0.10205 0.341055 0.106721
1256 1 0.13918 0.394908 0.0965692
7573 1 0.190867 0.498587 0.145343
296 1 0.124538 0.400928 0.0317024
9018 1 0.133891 0.279563 0.0226776
5956 1 0.294343 0.416358 0.00253739
3999 1 0.270245 0.310388 0.0571821
1016 1 0.26403 0.330276 0.0898699
5173 1 0.0324446 0.485169 0.235365
6119 1 0.256853 0.379664 0.0824463
238 1 0.498569 0.245082 0.111672
3604 1 0.263769 0.284546 0.0162786
1333 1 0.306181 0.360139 0.0426546
804 1 0.205773 0.394512 0.0121156
3667 1 0.225661 0.357017 0.0830532
2753 1 0.233415 0.403685 0.0401051
1384 1 0.290636 0.40104 0.078006
9130 1 0.472611 0.353398 0.343108
1069 1 0.237366 0.370945 0.0243535
701 1 0.152565 0.370757 0.167774
6431 1 0.203996 0.366748 0.0484589
9750 1 0.272233 0.378144 0.0451894
1887 1 0.362844 0.364142 0.0930491
3791 1 0.416208 0.374365 0.07192
5303 1 0.270738 0.339004 0.0207389
3981 1 0.294672 0.304049 0.0289703
75 1 0.31472 0.274988 0.0554302
11086 1 0.422863 0.0209872 0.0632483
684 1 0.220702 0.499392 0.340754
672 1 0.124975 0.0308433 0.341302
3143 1 0.376349 0.23031 0.023707
3486 1 0.365385 0.320367 0.0484924
6012 1 0.287111 0.00728649 0.0680079
2053 1 0.11566 0.31448 0.485732
700 1 0.351664 0.380834 0.128991
434 1 0.385191 0.395031 0.0788355
1851 1 0.499271 0.0496919 0.325788
345 1 0.389036 0.378201 0.040551
1711 1 0.143698 0.0724085 0.00311459
5743 1 0.156442 0.0256269 0.24613
454 1 0.486199 0.390858 0.104876
3077 1 0.426445 0.454895 0.489757
2681 1 0.379405 0.26743 0.0289884
7309 1 0.450986 0.344656 0.0691974
3513 1 0.419713 0.433591 0.031712
8425 1 0.418577 0.351986 0.0158866
1249 1 0.432823 0.315942 0.0191185
8602 1 0.416693 0.340564 0.0504711
2925 1 0.429813 0.385746 0.03638
14112 1 0.06483 0.00438116 0.12319
6048 1 0.275121 0.0199347 0.266155
590 1 0.350346 0.326179 0.0910292
2619 1 0.413457 0.339328 0.0873853
8291 1 0.078644 0.359495 0.0265348
1627 1 0.380471 0.350328 0.0648652
1309 1 0.459993 0.387718 0.068133
1497 1 0.495699 0.116777 0.270428
9190 1 0.475587 0.426333 0.111078
1729 1 0.0242964 0.286535 0.282137
4532 1 0.123166 0.00500699 0.184931
3640 1 0.415986 0.285798 0.00242974
687 1 0.0755264 0.489848 0.058021
14 1 0.0796451 0.455354 0.0336701
1635 1 0.00219127 0.47006 0.0595225
10375 1 0.0153466 0.366311 0.0519019
3533 1 0.12728 0.454979 0.0939039
7516 1 0.481034 0.0217068 0.0217489
14044 1 0.0879777 0.403801 0.0222234
7166 1 0.183153 0.0569993 0.00122684
4790 1 0.0902195 0.422713 0.0567849
916 1 0.477703 0.321309 0.0731826
6395 1 0.0679633 0.0869976 0.497638
1329 1 0.0231208 0.140222 0.351225
562 1 0.498578 0.333957 0.282613
2514 1 0.050811 0.439162 0.0500937
820 1 0.00982989 0.252389 0.216913
5572 1 0.488283 0.0262836 0.106846
9949 1 0.133399 0.41872 0.0684695
7565 1 0.203469 0.433595 0.0313774
1510 1 0.174086 0.419768 0.056147
186 1 0.158991 0.451049 0.110591
822 1 0.166298 0.382664 0.0718187
2453 1 0.120572 0.459732 0.134557
6158 1 0.162089 0.46539 0.073961
1540 1 0.0191795 0.260797 0.481753
8623 1 0.456248 0.333241 0.297796
5665 1 0.41465 0.00373755 0.272139
42 1 0.174565 0.458755 0.00405124
4411 1 0.177275 0.415902 0.0997402
3654 1 0.310051 0.0973328 0.499575
2580 1 0.42858 0.499952 0.400218
2978 1 0.314183 0.494797 0.4033
689 1 0.189905 0.473722 0.0389386
15244 1 0.492586 0.120072 0.370017
3855 1 0.240334 0.421738 0.0756045
10974 1 0.206168 0.465852 0.112722
3809 1 0.11637 0.367979 0.0203477
2860 1 0.234548 0.471037 0.0773209
3774 1 0.324254 0.356425 0.0785502
2213 1 0.30656 0.432796 0.0867535
2372 1 0.277615 0.419313 0.0440946
1822 1 0.273407 0.448529 0.0760734
1197 1 0.0070204 0.35433 0.121285
3162 1 0.224803 0.482672 0.0300357
1571 1 0.279709 0.458389 0.0318962
3629 1 0.241717 0.444679 0.0458407
14039 1 0.205642 0.4007 0.0698229
3572 1 0.26059 0.492775 0.0564116
15251 1 0.494932 0.411954 0.00290256
7492 1 0.313745 0.438938 0.0392139
5304 1 0.243538 0.0635893 0.222066
4731 1 0.0706897 0.0044063 0.332589
2081 1 0.414898 0.41989 0.0739547
1760 1 0.328136 0.317313 0.0238121
702 1 0.350499 0.438088 0.0455249
2609 1 0.379609 0.44055 0.0990198
12314 1 0.334374 0.476254 0.149824
1243 1 0.388735 0.418729 0.0476104
2734 1 0.32735 0.437894 0.15717
112 1 0.300525 0.479063 0.0644777
3520 1 0.351554 0.47564 0.113264
116 1 0.354165 0.382549 0.0632261
810 1 0.291473 0.445424 0.168573
9556 1 0.385576 0.453771 0.140127
2597 1 0.319657 0.403062 0.0584963
3351 1 0.35913 0.404459 0.0233728
8845 1 0.330331 0.458623 0.0780265
3890 1 0.31473 0.474009 0.0147013
1556 1 0.45157 0.43587 0.0635254
9562 1 0.469199 0.490499 0.310297
1018 1 0.45916 0.424413 0.0238419
312 1 0.461431 0.462422 0.029952
1463 1 0.0943839 0.260751 0.000975496
1755 1 0.493467 0.202801 0.412289
717 1 0.4038 0.37542 0.107933
5351 1 0.419356 0.454139 0.0948606
12563 1 0.485895 0.48282 0.0595668
412 1 0.457945 0.462785 0.0974207
286 1 0.415451 0.42724 0.139215
1187 1 0.0332785 0.455115 0.262828
13794 1 0.415808 0.457699 0.0571824
2828 1 0.338904 0.0219832 0.487473
6849 1 0.282135 0.00502951 0.481334
7121 1 0.369372 0.473161 0.0620124
931 1 0.425502 0.244401 0.0179328
8518 1 0.0209531 0.0483558 0.221406
8460 1 0.0586011 0.0334673 0.192287
4257 1 0.0717181 0.0272135 0.154817
1864 1 0.0700095 0.0348346 0.0934589
10119 1 0.0684002 0.0111471 0.240242
5795 1 0.0961272 0.0621875 0.109093
3810 1 0.0826944 0.227852 0.466088
4102 1 0.111125 0.0962302 0.166331
9217 1 0.0522378 0.0605254 0.166361
475 1 0.127133 0.0773005 0.0890143
8533 1 0.0999621 0.081028 0.0544556
5182 1 0.0883393 0.0640451 0.177947
2988 1 0.490232 0.371163 0.00784901
9646 1 0.0945147 0.0892513 0.203835
8865 1 0.0845127 0.0559821 0.221316
13749 1 0.0351207 0.0543703 0.0893774
157 1 0.406283 0.483759 0.466359
13154 1 0.0463875 0.00454068 0.170878
725 1 0.47007 0.0473302 0.0610432
935 1 0.124524 0.237183 0.0121184
4984 1 0.108997 0.048931 0.143923
4676 1 0.173549 0.0773857 0.0804242
1101 1 0.156454 0.044213 0.0856935
4662 1 0.200983 0.0325589 0.0959584
5897 1 0.111413 0.0193381 0.104027
4208 1 0.154333 0.063353 0.11655
4396 1 0.168707 0.0564331 0.156139
791 1 0.157471 0.0547951 0.197232
335 1 0.114486 0.0907153 0.125912
1825 1 0.130274 0.0638607 0.170459
4417 1 0.195591 0.0632098 0.116689
9835 1 0.433414 0.321119 0.366674
6020 1 0.113334 0.481705 0.465799
698 1 0.255801 0.049545 0.170792
696 1 0.213348 0.0662991 0.15641
1449 1 0.305155 0.0860555 0.0807228
12279 1 0.497274 0.466958 0.321864
5284 1 0.0156073 0.405203 0.47301
1186 1 0.25646 0.0320411 0.136217
15101 1 0.452267 0.37097 0.405536
5886 1 0.230915 0.087494 0.194446
5558 1 0.210988 0.0290425 0.136102
3753 1 0.132399 0.170925 0.490754
5946 1 0.182184 0.0827332 0.17811
2787 1 0.0399125 0.321267 0.0091261
4905 1 0.29694 0.0389659 0.176935
1469 1 0.460826 0.0554093 0.415522
393 1 0.265647 0.0743914 0.128504
7215 1 0.253741 0.0785887 0.258804
8867 1 0.495334 0.462523 0.1304
3904 1 0.359965 0.0587474 0.0766021
5796 1 0.364025 0.0386329 0.349523
4764 1 0.310819 0.0872361 0.187405
108 1 0.363175 0.103645 0.210701
4115 1 0.303283 0.0411331 0.26246
1338 1 0.310682 0.0197571 0.113944
1786 1 0.37193 0.0459397 0.150228
4173 1 0.429674 0.0791392 0.143491
1967 1 0.410707 0.0476457 0.132841
1894 1 0.3342 0.0636328 0.15132
984 1 0.329946 0.0278372 0.160253
4752 1 0.351631 0.0166586 0.188506
3937 1 0.404416 0.105678 0.116704
5360 1 0.229124 0.0153329 0.211489
4590 1 0.487686 0.00202115 0.184173
30 1 0.46605 0.0151948 0.13597
1795 1 0.107868 0.0138361 0.239768
1826 1 0.392916 0.0565471 0.198375
3881 1 0.406411 0.121493 0.207996
3628 1 0.461291 0.0713354 0.165274
344 1 0.0200686 0.320492 0.204771
4323 1 0.402256 0.120948 0.156666
3454 1 0.101744 0.196869 0.494937
4494 1 0.403756 0.0359821 0.238221
9915 1 0.453407 0.120316 0.173017
2506 1 0.0529713 0.389101 0.497748
5295 1 0.059535 0.130689 0.103393
1591 1 0.0448414 0.160217 0.084469
9481 1 0.0362079 0.166949 0.182453
449 1 0.0278249 0.100625 0.0896761
6070 1 0.0396474 0.0519113 0.129055
2756 1 0.0932234 0.129464 0.154467
8089 1 0.381528 0.0617413 0.42652
4841 1 0.0819605 0.0765272 0.142781
1839 1 0.0223104 0.181346 0.112164
8500 1 0.075017 0.110002 0.128848
1148 1 0.0944279 0.1711 0.125095
262 1 0.116648 0.130878 0.124158
1824 1 0.0922561 0.104255 0.0926868
1844 1 0.0993528 0.210143 0.155991
14128 1 0.376107 0.0129169 0.21818
4867 1 0.41876 0.456908 0.442011
10159 1 0.0367722 0.0902188 0.136395
1509 1 0.055374 0.301502 0.381147
7833 1 0.08516 0.139501 0.077322
1378 1 0.204289 0.175332 0.153813
1107 1 0.159131 0.101979 0.10775
7201 1 0.132022 0.117666 0.0878404
1232 1 0.141105 0.0869784 0.04417
2504 1 0.20082 0.106452 0.0975223
185 1 0.130793 0.136977 0.181533
780 1 0.125724 0.183731 0.139947
8399 1 0.180825 0.172584 0.117632
10035 1 0.126362 0.208507 0.181371
709 1 0.194052 0.0904976 0.216926
1419 1 0.151279 0.168931 0.0900289
1300 1 0.197908 0.137982 0.120735
760 1 0.146619 0.0936946 0.152218
1898 1 0.11147 0.163509 0.212599
1375 1 0.158641 0.204883 0.110043
532 1 0.294656 0.159286 0.0615331
5726 1 0.306723 0.0882887 0.127296
5185 1 0.231128 0.0812474 0.119483
1927 1 0.242564 0.148906 0.190885
2198 1 0.26998 0.162257 0.127202
257 1 0.249394 0.173205 0.157266
665 1 0.214582 0.116213 0.167903
173 1 0.234704 0.155509 0.123826
1202 1 0.268748 0.119359 0.186847
1313 1 0.201509 0.204701 0.115706
1346 1 0.264579 0.117549 0.119371
1288 1 0.285572 0.191723 0.144588
1188 1 0.28286 0.154399 0.174202
2966 1 0.232638 0.185512 0.188748
194 1 0.200896 0.157631 0.186981
1586 1 0.176494 0.131646 0.183966
692 1 0.29374 0.129371 0.145064
5 1 0.361514 0.0445446 0.112921
149 1 0.34611 0.0966539 0.0665538
485 1 0.284901 0.0937827 0.158298
1757 1 0.347286 0.203347 0.0911682
1350 1 0.305303 0.223141 0.0602381
1772 1 0.332546 0.120105 0.13322
243 1 0.378213 0.130498 0.128716
482 1 0.388918 0.103505 0.0801962
1865 1 0.352534 0.0979093 0.170688
1989 1 0.375832 0.152031 0.214277
5930 1 0.31425 0.127893 0.18661
1789 1 0.367029 0.166463 0.145036
697 1 0.4171 0.163217 0.135202
5423 1 0.389808 0.206301 0.157198
740 1 0.443475 0.218361 0.0812918
1930 1 0.336535 0.0523365 0.192636
4235 1 0.441776 0.148568 0.103444
1693 1 0.486712 0.133886 0.121449
1924 1 0.398237 0.157585 0.177862
1968 1 0.467444 0.106614 0.13324
1182 1 0.39933 0.140774 0.0922849
3358 1 0.419089 0.183068 0.0824649
3530 1 0.483106 0.141825 0.0730693
1732 1 0.439991 0.135306 0.139529
839 1 0.427007 0.110827 0.0848935
1597 1 0.410095 0.17352 0.211417
1058 1 0.0667067 0.098154 0.177866
1289 1 0.435621 0.158657 0.171832
531 1 0.454483 0.191972 0.115237
8449 1 0.0219116 0.223464 0.319129
271 1 0.431407 0.197907 0.147455
3988 1 0.492942 0.203247 0.123503
523 1 0.0108406 0.182628 0.00878289
1043 1 0.145992 0.23607 0.0799657
3563 1 0.064309 0.274751 0.142249
9797 1 0.0534797 0.243196 0.155064
9400 1 0.0446957 0.231314 0.199631
1111 1 0.0322863 0.227026 0.244206
8490 1 0.0313762 0.217417 0.122212
9409 1 0.0790462 0.22361 0.191149
1227 1 0.160465 0.233671 0.178378
84 1 0.104619 0.32629 0.141949
70 1 0.0880465 0.239068 0.129287
2117 1 0.446074 0.150981 0.218545
798 1 0.306194 0.346399 0.00495097
10184 1 0.0987803 0.292161 0.126391
351 1 0.117663 0.290815 0.180435
646 1 0.0641552 0.20202 0.140123
736 1 0.0550676 0.162965 0.124312
2826 1 0.190405 0.34812 0.0947971
1032 1 0.173272 0.308002 0.0757196
616 1 0.117525 0.206592 0.219083
1408 1 0.142219 0.22195 0.142106
1162 1 0.182328 0.258741 0.223787
1806 1 0.16169 0.261701 0.146155
890 1 0.204094 0.274551 0.0911543
1808 1 0.124656 0.246474 0.170634
1047 1 0.164563 0.303207 0.149504
834 1 0.162547 0.278074 0.181998
418 1 0.168694 0.246186 0.110667
1935 1 0.192501 0.238232 0.145259
1681 1 0.135171 0.255235 0.207036
1577 1 0.13713 0.292785 0.126837
9097 1 0.141942 0.141192 0.147507
226 1 0.171278 0.194285 0.149415
1444 1 0.225275 0.257927 0.216267
710 1 0.302374 0.211318 0.0984916
36 1 0.239466 0.294831 0.109184
10262 1 0.237595 0.300995 0.0660472
1189 1 0.220503 0.309352 0.142465
1462 1 0.271734 0.204491 0.208203
379 1 0.303004 0.167166 0.103891
372 1 0.247335 0.193386 0.123048
1391 1 0.299976 0.129573 0.103313
252 1 0.199574 0.23568 0.0917009
1977 1 0.209182 0.312857 0.0941938
1691 1 0.259376 0.222796 0.146464
1432 1 0.257242 0.225573 0.103012
1886 1 0.268309 0.27099 0.121285
1812 1 0.228562 0.247724 0.165653
824 1 0.283835 0.293112 0.0913138
221 1 0.206293 0.296273 0.22603
1813 1 0.222641 0.205651 0.152292
1209 1 0.222688 0.345383 0.155808
963 1 0.295392 0.230819 0.130495
1541 1 0.314364 0.262851 0.090342
1827 1 0.288452 0.250384 0.171827
1850 1 0.30551 0.27633 0.128804
1495 1 0.347938 0.152688 0.118007
1077 1 0.331938 0.228918 0.132589
989 1 0.352901 0.285044 0.075449
837 1 0.388681 0.304398 0.154821
1905 1 0.33512 0.189152 0.161924
8892 1 0.422111 0.256331 0.141671
3948 1 0.3948 0.306655 0.0713944
1716 1 0.359105 0.288931 0.13329
1001 1 0.429458 0.295414 0.134297
3691 1 0.366096 0.198316 0.125326
258 1 0.481594 0.210795 0.0870585
3763 1 0.303767 0.0113007 0.44633
9976 1 0.479367 0.234082 0.150101
3032 1 0.391943 0.240163 0.18322
613 1 0.449677 0.227744 0.128214
1475 1 0.462587 0.266785 0.155928
1737 1 0.448455 0.26573 0.11639
1508 1 0.380748 0.269433 0.107115
1652 1 0.420763 0.282205 0.173048
9424 1 0.349651 0.303323 0.175605
2764 1 0.0131904 0.13437 0.438364
815 1 0.436206 0.235109 0.172557
771 1 0.4595 0.309121 0.167377
8489 1 0.495546 0.040359 0.186793
1805 1 0.407211 0.208441 0.109152
2585 1 0.116496 0.234164 0.494637
3566 1 0.0744637 0.391703 0.107866
63 1 0.0319132 0.348645 0.0906248
3508 1 0.0701572 0.311823 0.133571
892 1 0.114058 0.34799 0.169915
2267 1 0.0478999 0.32908 0.164782
4004 1 0.0860108 0.366555 0.134265
600 1 0.0935248 0.430058 0.14716
1819 1 0.0340666 0.381985 0.114799
986 1 0.0440441 0.379705 0.168095
1873 1 0.031751 0.374858 0.245962
432 1 0.0738405 0.360183 0.168864
33 1 0.0817606 0.304695 0.168849
5593 1 0.044777 0.357098 0.202099
1458 1 0.0634379 0.418662 0.0806164
6886 1 0.487349 0.00520503 0.406653
987 1 0.061669 0.271247 0.187239
2539 1 0.180607 0.311197 0.0240255
952 1 0.146179 0.414247 0.204258
2527 1 0.180452 0.304821 0.115251
1843 1 0.18532 0.332014 0.1662
874 1 0.148797 0.324669 0.107001
10000 1 0.153376 0.275358 0.0932914
799 1 0.0664887 0.401531 0.145681
1490 1 0.147106 0.334455 0.152196
1457 1 0.170643 0.384278 0.131288
2819 1 0.163366 0.295126 0.21807
2384 1 0.154638 0.360895 0.0993917
1337 1 0.166572 0.346289 0.195074
1708 1 0.104275 0.374361 0.0921652
4097 1 0.208445 0.435432 0.203457
1899 1 0.179291 0.3968 0.202691
1299 1 0.131842 0.447946 0.177835
651 1 0.11525 0.422549 0.249453
2316 1 0.188442 0.337057 0.128504
1359 1 0.216654 0.428527 0.122287
2953 1 0.246864 0.406405 0.106237
3080 1 0.20061 0.364421 0.183134
1613 1 0.2149 0.371488 0.219028
1063 1 0.272626 0.389772 0.127791
1434 1 0.299897 0.312775 0.135624
959 1 0.236051 0.339558 0.118134
1538 1 0.309431 0.326276 0.0948231
911 1 0.261183 0.374572 0.163038
525 1 0.240773 0.28664 0.165337
324 1 0.260603 0.308779 0.136728
472 1 0.232643 0.391397 0.143213
2350 1 0.249549 0.449115 0.109949
575 1 0.288976 0.365131 0.102055
677 1 0.26442 0.426278 0.138384
1234 1 0.278919 0.280066 0.156894
138 1 0.279599 0.349279 0.139895
1658 1 0.261482 0.333425 0.173896
3985 1 0.322657 0.345379 0.124522
10213 1 0.346925 0.417167 0.124329
2700 1 0.326912 0.388188 0.0998993
86 1 0.34146 0.284054 0.0344227
1617 1 0.326117 0.277982 0.201291
1284 1 0.329534 0.318381 0.202721
705 1 0.322244 0.320031 0.0605081
1654 1 0.316835 0.289012 0.163731
11 1 0.291392 0.444394 0.207069
528 1 0.351144 0.325992 0.143351
1406 1 0.316297 0.331869 0.165272
8568 1 0.302432 0.406463 0.165158
1531 1 0.331939 0.301234 0.114315
603 1 0.380175 0.406326 0.114644
48 1 0.391653 0.376922 0.152808
1505 1 0.395189 0.310661 0.11008
444 1 0.353448 0.36239 0.162697
1480 1 0.293321 0.364983 0.177091
1699 1 0.322778 0.355444 0.199
9052 1 0.435106 0.358549 0.120647
349 1 0.477525 0.342961 0.163078
706 1 0.439993 0.387216 0.100278
10228 1 0.428096 0.321596 0.169068
1858 1 0.452386 0.326881 0.134092
211 1 0.384559 0.335926 0.171095
3322 1 0.376966 0.351557 0.128208
1543 1 0.369726 0.404719 0.155163
8779 1 0.412887 0.32934 0.134937
107 1 0.468574 0.388449 0.149946
1598 1 0.497295 0.429741 0.152061
11553 1 0.465645 0.34984 0.105651
826 1 0.406518 0.325279 0.241131
1879 1 0.410119 0.361327 0.183787
9853 1 0.483723 0.375754 0.188669
3812 1 0.186333 0.249966 0.0278178
12619 1 0.00377841 0.180835 0.0738284
611 1 0.0474195 0.463359 0.101523
1155 1 0.144825 0.491954 0.339985
12038 1 0.495164 0.437021 0.467199
64 1 0.0640395 0.43168 0.199067
3713 1 0.469592 0.186179 0.0193007
6030 1 0.0776204 0.46749 0.132106
413 1 0.0295 0.481211 0.147952
937 1 0.00477875 0.240777 0.104866
4973 1 0.130387 0.444336 0.221543
975 1 0.079077 0.400214 0.180468
1555 1 0.0582081 0.442749 0.159369
2594 1 0.0509987 0.182926 0.494171
9741 1 0.0892773 0.457633 0.219264
1608 1 0.445072 0.386478 0.452571
1074 1 0.492264 0.16923 0.105026
5616 1 0.10324 0.486482 0.100511
9093 1 0.486377 0.29157 0.445769
910 1 0.0479057 0.143322 0.323885
2801 1 0.454769 0.441607 0.466044
484 1 0.164705 0.452886 0.210673
161 1 0.165536 0.430564 0.172068
6348 1 0.212054 0.384858 0.106519
1400 1 0.103073 0.423576 0.101532
53 1 0.158736 0.477496 0.155355
4732 1 0.152937 0.489307 0.193715
1715 1 0.0947132 0.447582 0.182427
1307 1 0.187518 0.479223 0.187708
3605 1 0.468866 0.405302 0.468552
177 1 0.101923 0.413847 0.20695
3459 1 0.407907 0.376848 0.479419
868 1 0.144824 0.00429125 0.316321
1496 1 0.0331645 0.206535 0.166995
4509 1 0.0483064 0.0781174 0.279214
12186 1 0.137316 0.420218 0.13297
768 1 0.459036 0.349259 0.0281983
1405 1 0.349425 0.415789 0.0777859
1878 1 0.273036 0.479912 0.10473
307 1 0.245077 0.478455 0.134561
943 1 0.176501 0.427569 0.137907
1435 1 0.189825 0.396911 0.157728
1367 1 0.188851 0.459102 0.155549
8116 1 0.200991 0.439956 0.068928
10131 1 0.0104144 0.342223 0.162328
1611 1 0.221009 0.43263 0.166286
5524 1 0.223993 0.477812 0.168811
276 1 0.258498 0.462874 0.169101
1428 1 0.259589 0.411763 0.175239
1145 1 0.295917 0.455169 0.39839
5844 1 0.128804 0.460792 0.495474
8858 1 0.0384952 0.372107 0.395084
219 1 0.285617 0.458883 0.134422
728 1 0.319751 0.451722 0.120756
7989 1 0.337302 0.40175 0.172653
16 1 0.423879 0.472065 0.152997
1095 1 0.465493 0.40606 0.403783
1190 1 0.307308 0.410778 0.123427
8018 1 0.407831 0.438809 0.17356
1842 1 0.317931 0.379433 0.139797
4564 1 0.406309 0.486358 0.124441
1181 1 0.376552 0.464764 0.175714
13833 1 0.00270329 0.0612333 0.497517
1787 1 0.308997 0.468153 0.43358
5835 1 0.0537059 0.249882 0.499865
594 1 0.474819 0.102086 0.0928762
4734 1 0.48533 0.491123 0.105322
9616 1 0.0066161 0.0342107 0.0764388
1254 1 0.453371 0.424307 0.139823
800 1 0.392661 0.358453 0.219585
1811 1 0.420889 0.393121 0.135986
13350 1 0.441929 0.423848 0.101437
1417 1 0.417438 0.463304 0.205612
6002 1 0.455385 0.463005 0.178931
4967 1 0.410178 0.402592 0.176617
620 1 0.0503541 0.258348 0.462012
2302 1 0.494848 0.457859 0.176495
2820 1 0.497678 0.182228 0.063327
661 1 0.449626 0.253011 0.0472033
1420 1 0.474652 0.344507 0.384799
7265 1 0.313195 0.411543 0.340845
4755 1 0.044617 0.0725249 0.203777
1374 1 0.055233 0.0685388 0.243851
1863 1 0.122467 0.113041 0.257104
5151 1 0.0608199 0.102759 0.214639
918 1 0.00307121 0.0756323 0.0750259
3151 1 0.0370279 0.140149 0.281249
6036 1 0.136916 0.0702364 0.33748
4117 1 0.293013 0.492201 0.182847
1733 1 0.467224 0.225379 0.446157
1290 1 0.0491207 0.10863 0.253092
9848 1 0.0147096 0.136623 0.243892
10232 1 0.014188 0.099424 0.208857
8945 1 0.0262657 0.393051 0.438014
5603 1 0.199559 0.00911912 0.254515
4144 1 0.0900677 0.0916191 0.243898
5604 1 0.193774 0.0421156 0.230695
10604 1 0.372096 0.042259 0.0025682
5239 1 0.110713 0.0844765 0.312413
7903 1 0.122885 0.0640552 0.227332
7473 1 0.178293 0.0754595 0.248708
2088 1 0.325317 0.48221 0.466289
5557 1 0.149251 0.0833589 0.278142
1634 1 0.163208 0.0805572 0.310988
5621 1 0.165209 0.133776 0.258768