ITEM: TIMESTEP
20000
ITEM: NUMBER OF ATOMS
16384
ITEM: BOX BOUNDS pp pp pp
0.0000000000000000e+00 8.0764399999999995e+01
0.0000000000000000e+00 8.0764399999999995e+01
0.0000000000000000e+00 8.0764399999999995e+01
ITEM: ATOMS id type xs ys zs
628 1 0.0203089 0.0411639 0.0648969
3185 1 0.0701286 0.105434 0.046486
2221 1 0.05459 0.056944 0.0552835
685 1 0.0731966 0.0732291 0.0826741
11925 1 0.100565 0.0917183 0.021246
2472 1 0.152665 0.10663 0.0447604
14456 1 0.0483735 0.0332066 0.018978
9479 1 0.0624452 0.0742584 0.0176154
9202 1 0.0368933 0.0972289 0.0358991
1894 1 0.0613598 0.0276714 0.0881092
366 1 0.372871 0.348956 0.0113129
3995 1 0.093443 0.0578616 0.0462339
446 1 0.107648 0.111914 0.0593066
440 1 0.474682 0.438091 0.0147384
4686 1 0.0856771 0.0487391 0.41678
580 1 0.0346579 0.0838957 0.0714329
2695 1 0.116747 0.0246416 0.0392829
2484 1 0.121722 0.0697172 0.0692148
1245 1 0.144384 0.0270098 0.0656983
550 1 0.146177 0.0622869 0.0287314
7500 1 0.0981972 0.0412655 0.0833567
1617 1 0.173879 0.0533257 0.0565208
12100 1 0.496538 0.203663 0.490253
28 1 0.17317 0.0345237 0.0983155
1227 1 0.00775062 0.0697108 0.0970912
2744 1 0.182158 0.00671602 0.0594886
1267 1 0.156754 0.0882636 0.0785471
2809 1 0.190166 0.0483166 0.0232865
4546 1 0.4777 0.497837 0.102458
643 1 0.159399 0.197098 0.499133
3501 1 0.472076 0.254654 0.490387
89 1 0.122182 0.0962065 0.0943978
3344 1 0.269264 0.0909902 0.0911378
5065 1 0.234315 0.0724386 0.113582
204 1 0.221727 0.0549734 0.0492174
1196 1 0.27805 0.0596269 0.0710142
2322 1 0.156585 0.137805 0.00282658
1378 1 0.252768 0.0341927 0.0360989
1109 1 0.284611 0.110047 0.0539954
4746 1 0.237365 0.0808582 0.0759423
5428 1 0.239367 0.0144588 0.115178
7473 1 0.234068 0.0105144 0.015178
3145 1 0.242777 0.0877708 0.0296497
1475 1 0.487932 0.406721 0.270419
470 1 0.279054 0.100418 0.0126402
641 1 0.24775 0.036334 0.0773345
271 1 0.258026 0.0435992 0.133125
2741 1 0.282983 0.065072 0.0315117
1380 1 0.318058 0.0822454 0.0443322
1101 1 0.316281 0.0489886 0.069316
552 1 0.286987 0.027555 0.0897538
15242 1 0.326829 0.0126481 0.0817291
766 1 0.294576 0.0308589 0.0393265
2988 1 0.357005 0.027866 0.0617173
1968 1 0.365745 0.0739649 0.0642456
8999 1 0.498275 0.00806495 0.0433778
3622 1 0.353412 0.0780677 0.0283523
6318 1 0.332968 0.0447058 0.0280709
2096 1 0.370778 0.0460459 0.0116959
2567 1 0.273664 0.00161201 0.0195455
894 1 0.311714 0.0961383 0.0823286
7327 1 0.383138 0.0200435 0.0346722
1061 1 0.484383 0.0485069 0.0576724
1851 1 0.390542 0.0584301 0.0430207
2318 1 0.461422 0.0346645 0.0922834
9693 1 0.497255 0.422439 0.333587
697 1 0.462081 0.0101519 0.06055
10022 1 0.386332 0.110539 0.0900365
707 1 0.406497 0.0317233 0.0637581
1274 1 0.425357 0.0354857 0.0275897
2715 1 0.409735 0.0846494 0.0616039
3026 1 0.440702 0.0466028 0.063421
13892 1 0.472161 0.00270855 0.296265
8891 1 0.00109779 0.413286 0.0199422
4774 1 0.467789 0.0755582 0.0811162
1655 1 0.00929941 0.323023 0.173228
1320 1 0.42924 0.418515 0.434677
3780 1 0.467047 0.0252559 0.0163552
10886 1 0.485505 0.0987706 0.0419122
392 1 0.426893 0.00645971 0.181938
1799 1 0.48886 0.207849 0.318971
3544 1 0.0904075 0.138291 0.0381331
2054 1 0.0571938 0.180523 0.0832892
11602 1 0.0404168 0.120574 0.06597
8851 1 0.0487786 0.14269 0.0299345
10178 1 0.0556079 0.190002 0.040065
2291 1 0.0893431 0.173569 0.0487666
359 1 0.0132461 0.117706 0.102707
1884 1 0.455246 0.290549 0.489868
2543 1 0.106102 0.180727 0.0863893
1542 1 0.0640646 0.111748 0.00730611
11969 1 0.0189034 0.154685 0.0667929
8539 1 0.0224305 0.189661 0.0692738
2036 1 0.0786718 0.166038 0.00355361
10031 1 0.0266602 0.147986 0.295188
2843 1 0.0516694 0.291742 0.0126938
1591 1 0.115493 0.159401 0.022775
505 1 0.0783829 0.10986 0.0949369
952 1 0.183616 0.115728 0.0668338
9097 1 0.153408 0.145962 0.0416549
1995 1 0.189113 0.13688 0.0298056
3141 1 0.116622 0.147579 0.0639369
890 1 0.20681 0.146801 0.0732664
2923 1 0.0749795 0.14529 0.07849
1102 1 0.172958 0.156405 0.0736079
422 1 0.152094 0.123151 0.0888953
1487 1 0.203964 0.109784 0.0988424
2539 1 0.164932 0.204431 0.0515088
3885 1 0.160648 0.178484 0.0226854
2405 1 0.121834 0.120178 0.0096723
603 1 0.176562 0.0861827 0.0142139
1444 1 0.277535 0.170369 0.023582
861 1 0.264717 0.141624 0.0419543
629 1 0.188931 0.176489 0.0479953
6076 1 0.287212 0.119281 0.119863
4006 1 0.194139 0.0833571 0.0485068
994 1 0.298703 0.13457 0.0214049
1419 1 0.280986 0.182526 0.0583204
1827 1 0.238697 0.117316 0.0639759
307 1 0.245191 0.160577 0.0699134
642 1 0.276926 0.139539 0.0886081
1927 1 0.317475 0.16773 0.0443314
7662 1 0.433582 0.00190408 0.00912427
1613 1 0.285222 0.218682 0.0784203
7722 1 0.221654 0.159243 0.0360683
9484 1 0.44614 0.347986 0.0242424
4978 1 0.334806 0.117344 0.026525
8810 1 0.00833569 0.314597 0.308483
226 1 0.320382 0.132197 0.0614328
2837 1 0.379541 0.109198 0.0315277
2316 1 0.361094 0.138329 0.0498491
3659 1 0.246363 0.316174 0.00445618
1835 1 0.353669 0.106487 0.0758822
839 1 0.366318 0.091462 0.116488
2919 1 0.367129 0.180413 0.0504351
2461 1 0.395301 0.153825 0.0279039
2502 1 0.377871 0.182001 0.104638
1600 1 0.398865 0.204504 0.0591632
452 1 0.355786 0.162473 0.0188565
1942 1 0.314649 0.192947 0.0149217
3615 1 0.32896 0.200592 0.0670017
1543 1 0.401725 0.192745 0.0212197
5100 1 0.448677 2.69299e-05 0.337699
5000 1 0.0136891 0.0283117 0.291137
1117 1 0.425002 0.176039 0.0513968
3445 1 0.409722 0.141973 0.10494
448 1 0.413341 0.123893 0.0388331
1926 1 0.460292 0.13631 0.0341817
3407 1 0.396132 0.150531 0.0682469
754 1 0.448718 0.10201 0.0636746
1645 1 0.444299 0.152628 0.074623
663 1 0.48787 0.110768 0.0837217
2412 1 0.49219 0.160912 0.0255257
258 1 0.414521 0.180346 0.0901268
1745 1 0.479209 0.17873 0.0608966
3981 1 0.448794 0.109587 0.00552677
3005 1 0.457656 0.187961 0.0328695
2189 1 0.433039 0.0826496 0.0970352
3823 1 0.477346 0.171947 0.0999149
4497 1 0.0522703 0.476562 0.458267
1139 1 0.0305047 0.259113 0.0173928
1447 1 0.0492145 0.222502 0.0618646
3366 1 0.0561111 0.295174 0.0857571
3398 1 0.0862467 0.223666 0.0307332
1187 1 0.0633537 0.252676 0.0857098
2667 1 0.0654491 0.262557 0.050401
63 1 0.0718081 0.324382 0.010544
2796 1 0.0970128 0.280222 0.0677181
9126 1 0.009445 0.125035 0.0392212
9138 1 0.0222876 0.21433 0.0297684
354 1 0.0491576 0.215774 0.104911
3918 1 0.0542 0.247485 0.140586
9242 1 0.02426 0.283307 0.0489487
2336 1 0.383499 0.299759 0.0120567
2161 1 0.116297 0.197626 0.0233999
185 1 0.137074 0.214687 0.0959704
3417 1 0.0874691 0.211007 0.0740636
8763 1 0.131161 0.229838 0.0519222
9012 1 0.135769 0.180288 0.0618975
2969 1 0.163905 0.269401 0.0452796
626 1 0.208904 0.231001 0.0663084
1834 1 0.166875 0.235663 0.0777531
333 1 0.168756 0.237879 0.0279844
1256 1 0.205065 0.26905 0.0438632
3365 1 0.166646 0.192702 0.0864149
10005 1 0.1347 0.271806 0.0737626
3023 1 0.147959 0.210631 0.00633539
296 1 0.168823 0.258829 0.112488
3443 1 0.127882 0.299612 0.0475484
3021 1 0.198685 0.307548 0.113344
2852 1 0.134175 0.262993 0.0242299
5434 1 0.00612017 0.383194 0.146784
1819 1 0.118621 0.230587 0.00254103
3065 1 0.195641 0.21095 0.0309502
9900 1 0.0428259 0.492277 0.369105
489 1 0.29579 0.217547 0.041231
633 1 0.260752 0.230483 0.0516154
1571 1 0.235472 0.194502 0.0429838
814 1 0.212727 0.182205 0.0865663
1743 1 0.23047 0.233651 0.0279974
1772 1 0.263103 0.25312 0.00717352
745 1 0.262187 0.268141 0.059433
1878 1 0.294655 0.264836 0.0246313
1315 1 0.238848 0.30576 0.0434894
1978 1 0.236836 0.263474 0.0896847
116 1 0.232863 0.277371 0.0156478
1535 1 0.198106 0.277409 0.0870804
189 1 0.319233 0.222847 0.0948005
3864 1 0.271332 0.207775 0.00908638
1063 1 0.277194 0.297475 0.0238297
3948 1 0.337952 0.229007 0.043844
115 1 0.0271631 0.154344 0.248139
1238 1 0.31257 0.246806 0.0657277
681 1 0.33584 0.291181 0.0475649
1142 1 0.362136 0.216028 0.0735598
740 1 0.340078 0.262429 0.0182335
141 1 0.38211 0.226794 0.0368267
1175 1 0.397735 0.243294 0.130297
734 1 0.388462 0.246782 0.0756014
1556 1 0.367893 0.322812 0.0455115
2362 1 0.348939 0.259334 0.0759084
298 1 0.35753 0.276883 0.116668
2460 1 0.314947 0.291898 0.0110346
679 1 0.39038 0.291924 0.0851258
1887 1 0.267902 0.306848 0.0688003
1654 1 0.319296 0.257662 0.115376
6070 1 0.0474791 0.0187614 0.214693
10037 1 0.429967 0.215331 0.0297065
9853 1 0.485933 0.198138 0.00917906
9880 1 0.0869322 0.498173 0.264254
943 1 0.429036 0.230164 0.0686937
1694 1 0.467921 0.222559 0.0456027
8989 1 0.398159 0.26687 0.044619
594 1 0.479763 0.275842 0.0235334
8548 1 0.471769 0.317381 0.0718583
1369 1 0.21835 0.0108077 0.390307
270 1 0.455559 0.198376 0.0835154
75 1 0.436718 0.335383 0.0611032
243 1 0.44378 0.251634 0.0366913
7201 1 0.157772 0.0248093 0.0288565
1086 1 0.438031 0.298875 0.0830538
11714 1 0.460842 0.312261 0.0132324
13630 1 0.45973 0.0374312 0.226868
2377 1 0.0951185 0.0556136 0.00405404
8301 1 0.492486 0.363737 0.344972
8342 1 0.0705915 0.306641 0.0491669
9364 1 0.0922355 0.316839 0.104868
1283 1 0.0839007 0.389956 0.00348223
1992 1 0.0948829 0.329736 0.0672031
8805 1 0.0961985 0.277146 0.0237697
915 1 0.112657 0.328018 0.0268979
592 1 0.0695968 0.359669 0.0829539
6464 1 0.131383 0.41024 0.0497318
2427 1 0.0491166 0.373599 0.0404032
2554 1 0.0373963 0.341197 0.0235786
5172 1 0.044352 0.32836 0.0631172
8991 1 0.0373013 0.392632 0.00982532
1416 1 7.28246e-05 0.102246 0.31523
946 1 0.203226 0.307157 0.0626011
8190 1 0.0149314 0.222581 0.141693
1386 1 0.0853361 0.354177 0.0345696
3309 1 0.135475 0.339013 0.0553715
2179 1 0.165547 0.309174 0.0389337
7098 1 0.147837 0.348486 0.0206536
832 1 0.169307 0.307837 0.083728
7247 1 0.150056 0.341393 0.0991502
670 1 0.124964 0.373387 0.0725575
1748 1 0.182275 0.341063 0.0542655
786 1 0.126195 0.309119 0.0859299
1337 1 0.140163 0.30035 0.0113299
3240 1 0.120217 0.373549 0.0367728
2208 1 0.191185 0.40865 0.0850292
9858 1 0.153093 0.408271 0.0792746
1592 1 0.16606 0.373502 0.0643377
4097 1 0.194598 0.398434 0.047078
3506 1 0.185902 0.352011 0.0180272
3052 1 0.259483 0.317032 0.121942
5502 1 0.359711 0.470441 0.281651
1565 1 0.204012 0.300438 0.0212281
312 1 0.290022 0.400106 0.0910907
1426 1 0.250452 0.350533 0.0225986
778 1 0.267774 0.382873 0.0654971
3503 1 0.216487 0.339209 0.0342888
11787 1 0.215255 0.366921 0.0666011
651 1 0.250277 0.346109 0.0646043
1405 1 0.287208 0.35048 0.0582428
566 1 0.283582 0.370312 0.023575
2274 1 0.256494 0.400006 0.0274529
5074 1 0.223221 0.379143 0.0299071
6025 1 0.31596 0.00120654 0.354675
782 1 0.237336 0.345739 0.105702
743 1 0.318174 0.292218 0.0822097
1635 1 0.331754 0.33817 0.0664005
2855 1 0.243125 0.487836 0.0217124
884 1 0.355303 0.352573 0.10194
3118 1 0.304638 0.391302 0.0485752
3878 1 0.35066 0.307319 0.0779204
579 1 0.370195 0.372514 0.0376133
689 1 0.337673 0.362618 0.0276664
390 1 0.315613 0.367007 0.0985828
2649 1 0.34674 0.318593 0.0127562
398 1 0.309419 0.326043 0.0348978
430 1 0.343834 0.374037 0.0691336
1856 1 0.00731156 0.00750028 0.198841
720 1 0.291554 0.332729 0.099498
2619 1 0.421314 0.380962 0.0239549
3133 1 0.31141 0.39582 0.0101413
1760 1 0.40381 0.341741 0.036915
1973 1 0.403927 0.370586 0.0604769
8925 1 0.46272 0.351513 0.0861466
9745 1 0.444927 0.375734 0.0581965
1625 1 0.385247 0.34292 0.077301
728 1 0.476055 0.398743 0.0660768
950 1 0.460726 0.389695 0.019426
493 1 0.456609 0.388598 0.0937596
8939 1 0.487214 0.420464 0.102335
922 1 0.454085 0.29328 0.0452403
11571 1 0.484514 0.344915 0.0125688
15244 1 0.421706 0.11069 0.481483
9617 1 0.478016 0.354633 0.0506444
1704 1 0.216238 0.492038 0.120267
741 1 0.293741 0.495323 0.466053
9556 1 0.409034 0.309303 0.0581908
3974 1 0.0716103 0.420608 0.0184567
11911 1 0.048864 0.408804 0.0524651
4894 1 0.087015 0.473771 0.0739355
2625 1 0.0950715 0.442674 0.0465549
2929 1 0.0106303 0.461362 0.0669706
2549 1 0.0348826 0.485177 0.0316869
4943 1 0.0304379 0.439137 0.0280382
7718 1 0.132228 0.444317 0.0310299
4617 1 0.0802831 0.468665 0.0164356
1059 1 0.0233495 0.458868 0.107652
1774 1 0.0717357 0.433768 0.0780949
3440 1 0.351789 0.20199 0.0173209
14317 1 0.0857446 0.400794 0.0972654
8329 1 0.087819 0.392865 0.0494875
3485 1 0.221672 0.264785 0.49612
8720 1 0.0396558 0.486165 0.069545
1836 1 0.492406 0.106293 0.303894
4798 1 0.0542545 0.451552 0.0518524
5669 1 0.259165 0.0064228 0.267818
9417 1 0.47107 0.0161185 0.146146
384 1 0.132756 0.3808 0.107036
6913 1 0.13144 0.473067 0.00460039
2998 1 0.176779 0.47454 0.0631278
9912 1 0.139494 0.455005 0.069475
3894 1 0.152521 0.493126 0.0298542
3873 1 0.165183 0.429171 0.045958
234 1 0.111997 0.459694 0.107065
1349 1 0.17325 0.282977 0.00855573
5297 1 0.117876 0.478278 0.043376
290 1 0.160183 0.393351 0.0237646
1297 1 0.000155006 0.234908 0.231545
1946 1 0.262668 0.436925 0.10763
684 1 0.179369 0.461866 0.0261799
3522 1 0.235943 0.426977 0.0435962
5578 1 0.220057 0.455499 0.0148234
4342 1 0.271 0.427716 0.0688849
1331 1 0.203648 0.436567 0.0621174
5687 1 0.20878 0.464362 0.0934956
4971 1 0.264765 0.457009 0.0410973
4564 1 0.280531 0.469276 0.0785232
2350 1 0.195222 0.42582 0.0163896
753 1 0.227309 0.402662 0.0734803
125 1 0.300602 0.425834 0.11655
12570 1 0.349366 0.0233777 0.470588
10183 1 0.485687 0.169689 0.389963
3109 1 0.306592 0.464429 0.0415411
481 1 0.116544 0.491355 0.368498
4948 1 0.286313 0.426727 0.0277723
1103 1 0.332423 0.426933 0.0636266
1864 1 0.00254149 0.368845 0.49298
1991 1 0.373015 0.411342 0.0598089
3008 1 0.360938 0.447159 0.0483033
1566 1 0.355947 0.481126 0.0253679
5351 1 0.343928 0.403598 0.0258733
9117 1 0.386493 0.413222 0.0218737
2841 1 0.373525 0.444035 0.00684608
1155 1 0.330581 0.469376 0.0714029
7121 1 0.389945 0.47295 0.0344988
1910 1 0.342381 0.405121 0.096745
7128 1 0.327957 0.438349 0.020132
1344 1 0.215319 0.499821 0.31136
1363 1 0.447343 0.414782 0.0428034
14437 1 0.453471 0.456044 0.04104
5722 1 0.412718 0.4086 0.0555661
2438 1 0.414948 0.450834 0.0580381
426 1 0.428542 0.442494 0.0140903
8769 1 0.490515 0.0493519 0.143052
1586 1 0.136043 0.492518 0.49304
7440 1 0.205199 0.0150319 0.479034
5249 1 0.484608 0.439056 0.0633925
9641 1 0.444653 0.430852 0.0793623
5003 1 0.396984 0.477039 0.107965
5816 1 0.436857 0.484442 0.0626127
1674 1 0.00285913 0.456738 0.385386
2454 1 0.0407884 0.0544817 0.102185
9685 1 0.0370071 0.0999651 0.129597
965 1 0.469756 0.240146 0.00614777
1562 1 0.278649 0.000288722 0.461498
5555 1 0.0181521 0.0657903 0.13465
1697 1 0.0516828 0.0264923 0.176155
9646 1 0.0451963 0.0175022 0.133682
1375 1 0.086764 0.0388831 0.119628
5185 1 0.0901775 0.0560626 0.158473
1348 1 0.0529793 0.054925 0.145062
1920 1 0.0124761 0.0253223 0.164311
488 1 0.0733673 0.0673958 0.195612
907 1 0.0387119 0.0883751 0.207939
2906 1 0.226153 0.405208 0.0032284
618 1 0.0181544 0.0240526 0.100296
1515 1 0.0243753 0.0657697 0.179641
935 1 0.142645 0.0631089 0.103823
1580 1 0.153983 0.0402358 0.136007
801 1 0.195711 0.0750344 0.0872374
842 1 0.129762 0.0258031 0.100151
2384 1 0.197329 0.174847 0.012726
3594 1 0.070518 0.0820996 0.1238
1970 1 0.115672 0.0836457 0.19598
1670 1 0.171842 0.0554684 0.166659
1603 1 0.119535 0.0351936 0.145259
630 1 0.110366 0.074488 0.12555
1258 1 0.168627 0.0977217 0.183018
516 1 0.176486 0.0341279 0.203507
1451 1 0.138337 0.0761042 0.153397
1830 1 0.151709 0.0664117 0.20702
10226 1 0.173807 0.119155 0.149979
5634 1 0.136248 0.0437198 0.180532
2374 1 0.310739 0.468895 0.106095
2747 1 0.296277 0.277531 0.489775
1220 1 0.0948741 0.0057946 0.10115
731 1 0.157713 0.0111493 0.165722
1170 1 0.212146 0.0405472 0.100063
1510 1 0.235614 0.0634147 0.154653
1898 1 0.0844759 0.0136693 0.152058
548 1 0.190008 0.0702489 0.210087
1463 1 0.191099 0.0611742 0.131045
616 1 0.208905 0.0412067 0.173549
1106 1 0.228694 0.0168498 0.150197
459 1 0.284691 0.0152923 0.128195
11993 1 0.00303664 0.433218 0.457641
1389 1 0.259447 0.0382939 0.173858
5 1 0.228298 0.0151292 0.196206
1572 1 0.228623 0.0666751 0.197953
9426 1 0.283895 0.0620859 0.113046
756 1 0.304265 0.0900574 0.146138
1756 1 0.319615 0.0697102 0.178831
5896 1 0.276878 0.0737067 0.18086
1351 1 0.189336 0.0182116 0.130297
722 1 0.259465 0.0671197 0.21903
1960 1 0.398347 0.0592832 0.0890684
1639 1 0.371211 0.00330506 0.169013
1916 1 0.330225 0.0760954 0.113482
1116 1 0.358212 0.00663129 0.111841
1560 1 0.297115 0.0473506 0.145545
692 1 0.360538 0.0503244 0.106249
1707 1 0.359905 0.0785995 0.189111
2820 1 0.337203 0.0550895 0.147925
1886 1 0.373977 0.0702727 0.151094
912 1 0.346216 0.0353502 0.178077
1310 1 0.395124 0.0374909 0.175317
2752 1 0.410662 0.0704738 0.148101
1246 1 0.341845 0.0962745 0.156555
37 1 0.306196 0.0326473 0.180824
892 1 0.319124 0.0368496 0.113311
9301 1 0.0165828 0.0470727 0.454772
4865 1 0.437894 0.00974216 0.117903
1353 1 0.405385 0.0185401 0.142365
1545 1 0.396964 0.0183999 0.100146
52 1 0.439468 0.0381253 0.154812
8692 1 0.494483 0.0495995 0.100247
936 1 0.433762 0.0974078 0.131406
245 1 0.440156 0.053145 0.118475
9179 1 0.00172274 0.348058 0.0915255
1188 1 0.461121 0.0745307 0.14669
1273 1 0.426028 0.0500288 0.205988
1357 1 0.439432 0.0753234 0.178406
13470 1 0.461629 0.0412732 0.189215
1648 1 0.448161 0.111927 0.187201
8359 1 0.0127594 0.132383 0.461278
1540 1 0.00453085 0.325884 0.431509
4696 1 0.253378 0.0539205 0.469688
2100 1 0.467651 0.473824 0.485567
9850 1 0.110993 0.143227 0.103437
9502 1 0.054012 0.142693 0.108445
1232 1 0.0157646 0.101234 0.169563
3830 1 0.0658969 0.249924 0.0105866
1752 1 0.109361 0.118207 0.21353
8207 1 0.0696971 0.184541 0.122557
1844 1 0.0396854 0.135444 0.175373
1688 1 0.077392 0.128595 0.193027
9201 1 0.0526523 0.161992 0.148275
1832 1 0.0557994 0.0880618 0.170116
1557 1 0.0890095 0.15202 0.136411
1265 1 0.06829 0.119261 0.147019
1646 1 0.0639779 0.177041 0.220084
8450 1 0.0532132 0.195747 0.182827
3930 1 0.0993985 0.197866 0.199662
8515 1 0.0118662 0.173993 0.142939
8637 1 0.0191089 0.158082 0.106536
1148 1 0.0777497 0.0159133 0.32795
9492 1 0.0216213 0.135646 0.14396
1343 1 0.167328 0.0942985 0.118115
1092 1 0.116095 0.147586 0.183226
1500 1 0.13154 0.115289 0.168405
1751 1 0.0963795 0.100867 0.168273
458 1 0.154827 0.170667 0.145366
736 1 0.14147 0.136256 0.131549
621 1 0.184487 0.14154 0.104688
638 1 0.108655 0.112835 0.130362
515 1 0.191687 0.153826 0.150141
1013 1 0.159919 0.144893 0.17601
8755 1 0.144548 0.162747 0.103264
462 1 0.219707 0.109595 0.139361
55 1 0.197239 0.150617 0.19312
1124 1 0.186691 0.1763 0.119631
8533 1 0.12908 0.187131 0.177947
791 1 0.297098 0.16067 0.142457
418 1 0.308729 0.166147 0.0840529
308 1 0.23519 0.104945 0.177326
1279 1 0.202777 0.0789758 0.172078
1984 1 0.223694 0.150412 0.107069
1729 1 0.265666 0.170648 0.109415
1940 1 0.260507 0.0910452 0.143134
1398 1 0.24672 0.119372 0.111052
379 1 0.266442 0.188606 0.145082
714 1 0.277343 0.116661 0.173075
1899 1 0.234919 0.130852 0.202351
42 1 0.226834 0.159837 0.164412
1517 1 0.229294 0.169697 0.210106
396 1 0.260003 0.141931 0.14607
1766 1 0.199466 0.206006 0.144094
1462 1 0.301094 0.084842 0.211718
1573 1 0.261427 0.163348 0.186142
1891 1 0.348688 0.164241 0.0799838
634 1 0.346276 0.198778 0.106343
81 1 0.379706 0.101409 0.20643
1904 1 0.319497 0.130403 0.150391
1464 1 0.340741 0.163436 0.130972
525 1 0.385077 0.129765 0.170739
1605 1 0.328461 0.124612 0.113257
3347 1 0.358604 0.126707 0.141285
4202 1 0.307535 0.155005 0.181941
963 1 0.383262 0.141026 0.208864
1384 1 0.383214 0.159062 0.146107
1977 1 0.345808 0.158121 0.166646
1108 1 0.370069 0.198993 0.138004
1053 1 0.328568 0.19373 0.156637
1006 1 0.299435 0.194331 0.119187
1550 1 0.297763 0.165482 0.223466
1733 1 0.480661 0.1392 0.121967
1190 1 0.400571 0.120379 0.134433
792 1 0.366842 0.141248 0.10785
1924 1 0.448253 0.119374 0.101855
812 1 0.47567 0.110816 0.159197
8678 1 0.486231 0.0715803 0.178723
164 1 0.450664 0.135612 0.144141
8204 1 0.487615 0.104755 0.201269
10009 1 0.474508 0.138598 0.184684
490 1 0.441929 0.160764 0.115311
1171 1 0.426012 0.152986 0.188643
82 1 0.478035 0.0906311 0.116711
420 1 0.124343 0.00457496 0.186833
1817 1 0.463669 0.171719 0.151641
368 1 0.434668 0.199747 0.157433
254 1 0.422393 0.154248 0.151023
3250 1 0.215941 0.47758 0.0593541
549 1 0.417324 0.118079 0.208552
816 1 0.0406669 0.0149634 0.258984
3728 1 0.0810393 0.274567 0.115564
2127 1 0.0933869 0.188714 0.154096
3210 1 0.0861021 0.222028 0.121846
2233 1 0.101578 0.251758 0.14084
759 1 0.0473151 0.20003 0.144351
9755 1 0.0758322 0.220096 0.168214
8532 1 0.0800442 0.284282 0.156385
11173 1 0.0948418 0.287378 0.200423
119 1 0.0287854 0.247791 0.172199
1983 1 0.237395 0.12286 0.0070357
335 1 0.498722 0.217035 0.257485
8735 1 0.0530979 0.302772 0.199742
10182 1 0.065918 0.262612 0.18506
9069 1 0.0102626 0.265291 0.141404
1855 1 0.105257 0.242998 0.0887558
1333 1 0.166383 0.21021 0.122195
927 1 0.113666 0.315291 0.164357
1367 1 0.110681 0.289752 0.134496
3080 1 0.119533 0.180645 0.126514
190 1 0.111754 0.265145 0.173886
925 1 0.120862 0.217704 0.141005
752 1 0.157705 0.210736 0.162353
1656 1 0.18305 0.242686 0.145431
9186 1 0.14028 0.283835 0.154453
1857 1 0.182771 0.299775 0.18536
11893 1 0.129878 0.254043 0.114719
1559 1 0.183517 0.234916 0.186137
11 1 0.158648 0.265135 0.182223
942 1 0.197393 0.220285 0.1002
993 1 0.20581 0.273214 0.157158
941 1 0.180288 0.300625 0.145651
1468 1 0.119218 0.223927 0.182771
986 1 0.182981 0.183165 0.180072
1936 1 0.239973 0.214708 0.0993569
1428 1 0.270298 0.281032 0.112697
252 1 0.223513 0.236446 0.162531
407 1 0.256009 0.234604 0.142748
1529 1 0.2318 0.185052 0.12525
349 1 0.242711 0.25664 0.190747
1345 1 0.28591 0.234149 0.113683
39 1 0.214068 0.258523 0.120488
1012 1 0.289895 0.257936 0.14186
1202 1 0.250773 0.211576 0.202185
32 1 0.217557 0.305574 0.172937
888 1 0.23581 0.305795 0.0911045
1277 1 0.236672 0.196712 0.168984
958 1 0.254187 0.272706 0.153802
497 1 0.400384 0.295191 0.120602
700 1 0.292125 0.195714 0.184786
939 1 0.319296 0.234429 0.179149
1627 1 0.293132 0.220763 0.149075
284 1 0.394609 0.218319 0.0993122
760 1 0.385634 0.278594 0.155739
1181 1 0.337502 0.228604 0.135058
1858 1 0.318559 0.209855 0.217396
1507 1 0.363599 0.231971 0.164298
737 1 0.346462 0.282374 0.200941
1385 1 0.384861 0.258292 0.188973
1222 1 0.364833 0.239703 0.111505
4252 1 0.334269 0.266362 0.155226
196 1 0.415158 0.295316 0.182964
1776 1 0.432884 0.253429 0.176081
87 1 0.408106 0.189648 0.131733
992 1 0.401902 0.217558 0.163035
1736 1 0.421738 0.279736 0.147974
1435 1 0.419558 0.260674 0.0998769
1505 1 0.436362 0.222071 0.108468
1214 1 0.389592 0.178591 0.182371
1826 1 0.499519 0.255002 0.178811
959 1 0.46963 0.247705 0.122502
1902 1 0.455578 0.297918 0.17572
8398 1 0.435572 0.244959 0.137869
4760 1 0.4703 0.222274 0.158565
771 1 0.469032 0.289373 0.105715
977 1 0.491509 0.30807 0.174086
8427 1 0.460837 0.256612 0.080658
1241 1 0.465229 0.265554 0.158888
15874 1 0.499061 0.457304 0.45757
12 1 0.423396 0.431821 0.365903
8241 1 0.0211895 0.30722 0.0948217
1306 1 0.0785258 0.323432 0.142522
4063 1 0.0639811 0.395937 0.145431
9366 1 0.0431677 0.367147 0.152512
514 1 0.0411028 0.289175 0.124436
95 1 0.0151546 0.389405 0.19805
8605 1 0.0848995 0.326364 0.182919
822 1 0.0448802 0.335222 0.176796
937 1 0.059928 0.367914 0.18616
687 1 0.0695712 0.364975 0.12197
1907 1 0.0313799 0.366406 0.117846
8897 1 0.0554346 0.32572 0.106333
9360 1 0.103493 0.394484 0.133417
8857 1 0.0709058 0.403906 0.205982
1954 1 0.0249316 0.328829 0.212341
9619 1 0.0142196 0.363905 0.3602
1503 1 0.390128 0.477636 0.452074
8971 1 0.109123 0.350971 0.102128
1163 1 0.171151 0.375974 0.104024
1218 1 0.155068 0.292402 0.116634
434 1 0.102475 0.359924 0.150485
134 1 0.0918081 0.391127 0.176005
1749 1 0.129233 0.322919 0.128143
1179 1 0.156975 0.371551 0.141469
9652 1 0.137863 0.345009 0.160353
945 1 0.129374 0.386361 0.162986
1340 1 0.173525 0.335241 0.132794
272 1 0.133605 0.363553 0.190784
1934 1 0.172827 0.366823 0.176555
1334 1 0.174971 0.402501 0.171182
131 1 0.153748 0.325639 0.197496
623 1 0.201157 0.362708 0.145458
2889 1 0.273195 0.364288 0.0980472
397 1 0.290515 0.303422 0.15424
975 1 0.189663 0.34158 0.0932043
301 1 0.212219 0.374245 0.1064
1359 1 0.254153 0.324068 0.159054
789 1 0.314037 0.290646 0.182096
1644 1 0.211947 0.400461 0.159526
27 1 0.208134 0.410972 0.120952
2514 1 0.270458 0.369469 0.175435
914 1 0.250748 0.393418 0.104292
571 1 0.272649 0.350724 0.138943
1705 1 0.233868 0.361121 0.17283
625 1 0.229929 0.292557 0.130156
599 1 0.217006 0.329884 0.140017
1485 1 0.286108 0.345797 0.218858
1879 1 0.327824 0.315878 0.2098
537 1 0.283724 0.39205 0.133661
1653 1 0.238261 0.375361 0.138017
4118 1 0.241746 0.39615 0.186966
161 1 0.378169 0.385024 0.0903005
3131 1 0.390433 0.349939 0.113964
1966 1 0.327197 0.334147 0.165497
4821 1 0.305908 0.374345 0.194642
744 1 0.363564 0.31907 0.120107
348 1 0.317025 0.300777 0.118903
1816 1 0.352721 0.301099 0.167348
1905 1 0.363837 0.365012 0.148592
1387 1 0.324342 0.342692 0.125996
1303 1 0.304861 0.364672 0.158248
2953 1 0.370946 0.440733 0.0857095
1789 1 0.396622 0.35362 0.163241
819 1 0.282005 0.334348 0.180574
34 1 0.325438 0.391785 0.132908
717 1 0.383078 0.29479 0.202469
54 1 0.381345 0.391306 0.174626
930 1 0.475281 0.391609 0.124859
1054 1 0.448119 0.304976 0.137573
413 1 0.433503 0.364014 0.18598
706 1 0.428148 0.330422 0.110283
793 1 0.429932 0.335009 0.15824
657 1 0.395963 0.31897 0.153431
1008 1 0.436469 0.412168 0.113454
9615 1 0.463512 0.353361 0.128178
1821 1 0.494582 0.480753 0.411757
856 1 0.425569 0.36851 0.0941226
1519 1 0.47221 0.375334 0.161504
8384 1 0.423096 0.372374 0.135193
524 1 0.46617 0.338171 0.173406
3404 1 0.120876 0.407621 0.00778744
356 1 0.242269 0.00961638 0.231128
3295 1 0.240875 0.173266 0.00473917
2657 1 0.393158 0.0141647 0.407086
2860 1 0.0422385 0.402503 0.0911446
9031 1 0.00241362 0.212168 0.0988744
4075 1 0.0566887 0.468741 0.096592
872 1 0.074326 0.440147 0.125178
4366 1 0.0302114 0.443064 0.144621
1458 1 0.0319571 0.407836 0.126545
777 1 0.0541973 0.466004 0.170202
12873 1 0.0720821 0.429178 0.164586
12220 1 0.385518 0.207002 0.494947
1240 1 0.0114077 0.392569 0.464007
9898 1 0.0272572 0.473397 0.205371
12340 1 0.0139202 0.468443 0.169512
406 1 0.164253 0.407837 0.126079
7037 1 0.149515 0.453138 0.126374
1972 1 0.142993 0.421598 0.15573
1890 1 0.199437 0.426518 0.193466
4406 1 0.17053 0.450044 0.161961
3463 1 0.158659 0.427818 0.191696
4175 1 0.215004 0.441838 0.161105
5303 1 0.177714 0.472558 0.191594
1038 1 0.110878 0.428925 0.0802181
5702 1 0.157971 0.486948 0.149453
5269 1 0.122073 0.491686 0.132643
1561 1 0.111027 0.437425 0.141138
523 1 0.31632 0.0741459 0.0074049
326 1 0.105911 0.427177 0.17888
1336 1 0.130445 0.455271 0.170061
83 1 0.0663547 0.0376635 0.499621
380 1 0.171689 0.484079 0.110711
5398 1 0.0743288 0.0193891 0.0513291
485 1 0.465586 0.210855 0.27294
897 1 0.234281 0.443656 0.0808074
4143 1 0.173515 0.448719 0.0923882
14077 1 0.0109941 0.00837541 0.446894
4411 1 0.18733 0.448298 0.12966
1467 1 0.226369 0.44656 0.122033
5346 1 0.208851 0.478266 0.161086
2499 1 0.232127 0.487528 0.199741
987 1 0.247759 0.470829 0.153725
5899 1 0.245598 0.412497 0.14578
1822 1 0.265694 0.475366 0.116852
5905 1 0.235433 0.440176 0.201142
5860 1 0.285996 0.485091 0.155029
573 1 0.270489 0.423336 0.191459
1495 1 0.286791 0.455335 0.179625
1554 1 0.304434 0.409454 0.169143
593 1 0.269793 0.494766 0.227163
8825 1 0.0033386 0.401938 0.350395
5672 1 0.242121 0.484636 0.0865299
112 1 0.338215 0.428954 0.133951
5488 1 0.381392 0.447489 0.125787
9955 1 0.49578 0.315121 0.033398
1608 1 0.34818 0.401955 0.165525
6431 1 0.310934 0.454875 0.144479
3499 1 0.274246 0.434902 0.144516
973 1 0.304766 0.424562 0.2133
1079 1 0.134688 0.491359 0.0811359
1358 1 0.345296 0.472802 0.123912
5354 1 0.347425 0.478943 0.172466
1715 1 0.413065 0.461439 0.143346
435 1 0.364243 0.443443 0.164051
5852 1 0.325983 0.438268 0.176546
951 1 0.363658 0.474298 0.208512
207 1 0.398625 0.472923 0.179449
4748 1 0.355305 0.433323 0.20267
961 1 0.370753 0.401971 0.130362
105 1 0.427323 0.444293 0.172524
1761 1 0.322218 0.461841 0.211404
2061 1 0.447673 0.490666 0.398408
3596 1 0.384849 0.248208 0.496856
1716 1 0.403159 0.410964 0.0965861
109 1 0.473467 0.457618 0.0985135
5036 1 0.441637 0.406479 0.16376
173 1 0.417071 0.0730311 0.0134208
12380 1 0.0692009 0.490504 0.138214
6005 1 0.494564 0.413312 0.153346
1961 1 0.401316 0.418024 0.151306
1912 1 0.446557 0.441979 0.140356
5872 1 0.47918 0.470404 0.140996
1319 1 0.437858 0.479231 0.116916
1153 1 0.467726 0.440875 0.174948
1417 1 0.482856 0.47536 0.180616
5316 1 0.420967 0.443921 0.104214
9517 1 0.463563 0.384075 0.203578
4335 1 0.444993 0.477948 0.170096
3710 1 0.229684 0.052096 0.0118375
5152 1 0.0160343 0.051173 0.221612
1085 1 0.494896 0.337339 0.427778
827 1 0.0716444 0.0676194 0.262356
1147 1 0.098079 0.0496031 0.230012
775 1 0.0909472 0.0603182 0.296879
531 1 0.0543558 0.0532687 0.311803
1110 1 0.0297469 0.0554596 0.26182
9816 1 0.0552367 0.0537876 0.229343
932 1 0.0865842 0.0323049 0.196529
5073 1 0.0661215 0.0299337 0.28566
1394 1 0.48995 0.378468 0.414597
968 1 0.0780281 0.0937779 0.227147
71 1 0.0438095 0.0991016 0.247821
227 1 0.0557915 0.0914858 0.287879
269 1 0.077015 0.0238786 0.251653
5886 1 0.019441 0.0741633 0.290491
511 1 0.0762754 0.377308 0.494979
1055 1 0.190768 0.10811 0.224881
432 1 0.122957 0.0818595 0.235248
431 1 0.106481 0.0153539 0.297331
1713 1 0.122091 0.0810682 0.279417
1788 1 0.110942 0.0391039 0.267203
1338 1 0.168509 0.0510216 0.325873
1593 1 0.150569 0.0623581 0.257374
1326 1 0.14084 0.0165225 0.269731
678 1 0.133805 0.0350244 0.233573
1440 1 0.181554 0.0377733 0.243618
805 1 0.186954 0.0767389 0.252416
5820 1 0.178114 0.00111956 0.265615
1111 1 0.174214 0.0740604 0.294531
1702 1 0.173884 0.0366906 0.284682
346 1 0.225219 0.0795608 0.23726
12030 1 0.0570715 0.207941 0.00494857
177 1 0.216376 0.0156154 0.266718
1986 1 0.201255 0.00345389 0.23412
9545 1 0.49804 0.217785 0.359003
5946 1 0.28093 0.0511142 0.309183
4049 1 0.230696 0.499457 0.382035
659 1 0.265725 0.043148 0.257373
5856 1 0.301475 0.06572 0.277993
6007 1 0.281533 0.0835538 0.24684
1300 1 0.202829 0.0203945 0.304892
1415 1 0.210893 0.0519577 0.274394
1843 1 0.223412 0.0395291 0.224609
142 1 0.250176 0.0259706 0.298594
980 1 0.263274 0.0777771 0.283155
1614 1 0.304925 0.0491998 0.231147