ITEM: TIMESTEP
10000
ITEM: NUMBER OF ATOMS
16384
ITEM: BOX BOUNDS pp pp pp
0.0000000000000000e+00 8.0764399999999995e+01
0.0000000000000000e+00 8.0764399999999995e+01
0.0000000000000000e+00 8.0764399999999995e+01
ITEM: ATOMS id type xs ys zs
5218 1 0.0369773 0.0483207 0.0726522
5581 1 0.00503914 0.042758 0.0384713
6557 1 0.073766 0.0404842 0.0655139
5735 1 0.0677132 0.00810596 0.0971071
5804 1 0.032076 0.0137343 0.0866663
11193 1 0.0162689 0.0911615 0.0944229
10003 1 0.0929205 0.093672 0.0399094
11396 1 0.0658143 0.0693953 0.088875
15153 1 0.0722742 0.0292181 0.026384
2836 1 0.0662106 0.0735622 0.0476441
11665 1 0.0107235 0.00425804 0.0193778
14391 1 0.0444191 0.00831122 0.0497709
11765 1 0.0340372 0.0788308 0.026928
11974 1 0.0397494 0.0376696 0.0261409
9996 1 0.0160969 0.073728 0.0587607
11875 1 0.00606398 0.0589694 0.00808106
4676 1 0.0611845 0.0725236 0.0010657
16212 1 0.01138 0.0973301 0.00194693
5902 1 0.108563 0.0222963 0.0770445
3812 1 0.161734 0.0553523 0.0800638
13900 1 0.103622 0.0959372 0.0725961
5947 1 0.175748 0.0839534 0.0985654
11602 1 0.185472 0.0944785 0.0222122
3351 1 0.103683 0.0575205 0.0514245
10641 1 0.130465 0.0760773 0.0613471
152 1 0.193976 0.0447302 0.0595339
1677 1 0.155521 0.0229235 0.0664834
6194 1 0.147843 0.0527984 0.0299854
7980 1 0.112674 0.0227435 0.0357266
11398 1 0.177409 0.0808218 0.0589246
16 1 0.104962 0.057345 0.009581
3534 1 0.179649 0.0200058 0.0391517
3389 1 0.133904 0.0897024 0.00172366
6153 1 0.135003 0.0212759 0.00397347
897 1 0.201947 0.00884998 0.0889818
3908 1 0.219187 0.025832 0.0207939
3655 1 0.231265 0.0349687 0.0583181
2966 1 0.254752 0.0508462 0.0301276
4918 1 0.238385 0.0191873 0.098509
5017 1 0.268573 0.0833818 0.0230331
470 1 0.272211 0.050353 0.0672936
3267 1 0.26984 0.0906768 0.0631366
1202 1 0.29951 0.098963 0.030957
14986 1 0.252491 0.0129889 0.0323611
8851 1 0.29674 0.0594335 0.0313094
2658 1 0.239332 0.0546552 0.0904438
8399 1 0.215931 0.0617613 0.0244739
10172 1 0.28758 0.0180902 0.0593055
7087 1 0.210879 0.00344286 0.0544338
822 1 0.208569 0.0748802 0.0769094
3969 1 0.288664 0.0114143 0.0158285
16084 1 0.274624 0.0422906 0.000273462
3241 1 0.335467 0.0756449 0.0223706
8839 1 0.339216 0.00594785 0.0772981
137 1 0.320604 0.0526891 0.0584984
7638 1 0.368976 0.0389939 0.0799623
13758 1 0.377512 0.0699235 0.0432148
2201 1 0.332424 0.0401481 0.0884142
2957 1 0.359919 0.0394911 0.0326762
1855 1 0.330322 0.0952683 0.05651
15284 1 0.37692 0.0997451 0.0220237
1987 1 0.30327 0.0860433 0.0865553
277 1 0.344524 0.0704628 0.0994971
2820 1 0.372705 0.097268 0.0737432
12199 1 0.319351 0.00747225 0.0408481
2763 1 0.322331 0.012873 0.00136711
904 1 0.389849 0.0547984 0.0105336
1565 1 0.397541 0.0116327 0.0483364
14061 1 0.48623 0.0859412 0.066846
6154 1 0.429653 0.0264257 0.0522825
52 1 0.425539 0.0938529 0.0560622
4419 1 0.430703 0.060801 0.0345579
9247 1 0.405434 0.021314 0.00494065
5955 1 0.444675 0.0254955 0.0840067
11932 1 0.440563 0.0289786 0.0164032
12337 1 0.470045 0.00753047 0.0649474
12076 1 0.447283 0.0918765 0.0874805
10722 1 0.404948 0.0636168 0.0706446
1324 1 0.407209 0.0292339 0.0936013
10282 1 0.46811 0.0685741 0.0329153
12030 1 0.418162 0.0906152 0.0199989
7583 1 0.481075 0.0314605 0.0288924
1406 1 0.473214 0.06683 0.0994992
3494 1 0.463893 0.0448623 0.062224
7161 1 0.49907 0.0486134 0.07354
12824 1 0.464973 0.00273792 0.0112724
4444 1 0.044984 0.138754 0.0234003
15850 1 0.0397983 0.110283 0.0629755
1238 1 0.0961289 0.180166 0.0530553
3056 1 0.081514 0.168554 0.0918858
11672 1 0.0412691 0.178332 0.0352731
3909 1 0.0515883 0.190492 0.0941331
3830 1 0.0862617 0.164934 0.0169386
351 1 0.0127904 0.109764 0.039171
15487 1 0.007229 0.150799 0.0383427
14378 1 0.0523256 0.147965 0.0650368
2858 1 0.00899091 0.173987 0.0860843
16074 1 0.0565472 0.106618 0.00737671
6331 1 0.0882196 0.129354 0.0237221
3947 1 0.0738884 0.119538 0.067268
16199 1 0.0180212 0.130383 0.0832432
10263 1 0.00189035 0.134885 0.000190194
14783 1 0.15598 0.117845 0.0683578
11115 1 0.181436 0.159085 0.00754306
7857 1 0.177492 0.142189 0.044966
10252 1 0.153182 0.196512 0.000276311
2826 1 0.118526 0.132178 0.0563117
2036 1 0.136796 0.156256 0.0319264
6852 1 0.131855 0.17691 0.0751361
72 1 0.196681 0.174981 0.0393415
1316 1 0.124045 0.196156 0.0283336
3191 1 0.162072 0.126682 0.00858012
448 1 0.188721 0.112102 0.0864466
346 1 0.1595 0.185186 0.0336523
4413 1 0.143616 0.101921 0.0349059
4003 1 0.190948 0.191335 0.0909802
8673 1 0.117943 0.174936 0.00154263
11229 1 0.228375 0.162524 0.0193672
182 1 0.270075 0.175846 0.0156338
2023 1 0.249429 0.163574 0.05415
3001 1 0.264563 0.190154 0.081162
890 1 0.272097 0.135903 0.0676555
11068 1 0.240493 0.111853 0.0789925
10443 1 0.230102 0.197574 0.0188714
12156 1 0.21089 0.126108 0.0538841
10452 1 0.274755 0.131383 0.0203945
3467 1 0.290066 0.168614 0.0599996
9158 1 0.208836 0.164151 0.0766355
884 1 0.232306 0.188078 0.0922115
4996 1 0.205018 0.127807 0.0125935
7809 1 0.238754 0.100177 0.0360139
580 1 0.335116 0.107962 0.0994648
10963 1 0.326812 0.180942 0.0662524
13259 1 0.345258 0.131113 0.064653
4697 1 0.308724 0.135662 0.0510628
10856 1 0.330163 0.121228 0.0124993
6279 1 0.310473 0.191568 0.0972259
549 1 0.305921 0.18591 0.0271413
3402 1 0.329864 0.158666 0.0287944
1657 1 0.38074 0.149038 0.0670393
9020 1 0.39904 0.136418 0.0114849
353 1 0.382415 0.172065 0.0313124
7622 1 0.341611 0.193756 0.0357478
1378 1 0.363016 0.186109 0.0713239
1019 1 0.366668 0.136175 0.0350502
446 1 0.304698 0.127815 0.0892883
1357 1 0.346855 0.17684 0.000305649
9467 1 0.409211 0.107256 0.0922889
10082 1 0.401578 0.121241 0.0519823
1380 1 0.411196 0.186405 0.0459911
9975 1 0.478293 0.179387 0.0619973
3889 1 0.435184 0.124556 0.0708142
12511 1 0.463395 0.152098 0.0838942
258 1 0.451316 0.178004 0.0179225
8798 1 0.447435 0.144688 0.0347033
6645 1 0.467055 0.124662 0.0099275
10054 1 0.413996 0.151675 0.085833
11239 1 0.459057 0.103205 0.0431516
13392 1 0.494058 0.111523 0.0358395
977 1 0.442965 0.192331 0.0636974
8890 1 0.49522 0.141229 0.0695054
11129 1 0.481605 0.153289 0.0308295
3381 1 0.0599746 0.21434 0.0519908
1014 1 0.0640907 0.233164 0.019402
8963 1 0.0898532 0.217132 0.074279
10375 1 0.0489605 0.244396 0.079679
10097 1 0.0203991 0.201314 0.0572326
3227 1 0.089982 0.205248 0.0227951
1705 1 0.0476296 0.255251 0.0436144
3814 1 0.0410433 0.299549 0.0155949
2321 1 0.0904154 0.286491 0.0947105
4824 1 0.0898872 0.251806 0.0566755
2978 1 0.0294978 0.21644 0.0238671
15910 1 0.0330579 0.263396 0.00548324
4886 1 0.0598637 0.277303 0.075828
2277 1 0.00470018 0.234277 0.0536524
3998 1 0.0715009 0.292487 0.0357188
8476 1 0.0138431 0.244288 0.0939708
8437 1 0.0225084 0.278384 0.0803765
8788 1 0.00586961 0.235198 0.0025394
9173 1 0.00808571 0.269227 0.032247
4777 1 0.111713 0.229487 0.00272191
1424 1 0.120903 0.286322 0.0546354
5981 1 0.120668 0.233224 0.0477272
1063 1 0.122258 0.262748 0.0825429
3721 1 0.127189 0.225764 0.0871508
8675 1 0.177561 0.228222 0.0798654
6839 1 0.151075 0.207897 0.0679519
11225 1 0.12902 0.264027 0.0240864
2914 1 0.183655 0.291631 0.077422
2960 1 0.151557 0.25464 0.0644334
708 1 0.143055 0.299625 0.0809208
3251 1 0.173204 0.270337 0.0191587
254 1 0.158668 0.225414 0.0239413
8411 1 0.226144 0.212768 0.0657376
2451 1 0.206079 0.230878 0.0241873
58 1 0.263306 0.201555 0.0468406
3042 1 0.20686 0.244983 0.0603
1605 1 0.255531 0.243511 0.0782224
1950 1 0.275189 0.294617 0.0570655
1340 1 0.293377 0.262417 0.0693712
1193 1 0.287682 0.223767 0.0639203
661 1 0.222483 0.299772 0.0715663
6203 1 0.287948 0.287073 0.0924904
3538 1 0.238848 0.250805 0.000411199
1363 1 0.237268 0.290393 0.0351621
2055 1 0.21275 0.26771 0.0995174
633 1 0.252258 0.279829 0.086566
745 1 0.295774 0.256132 0.0129801
1310 1 0.247775 0.25311 0.0402884
396 1 0.271131 0.221841 0.0112984
3796 1 0.212182 0.266334 0.0266646
2221 1 0.327294 0.277178 0.0936371
5112 1 0.39149 0.219179 0.0599226
7503 1 0.348045 0.21501 0.0926397
13283 1 0.39461 0.239399 0.0208572
2642 1 0.3599 0.235095 0.0441932
3961 1 0.342317 0.263086 0.0241783
2323 1 0.363126 0.26875 0.0611819
2815 1 0.381312 0.235855 0.0966988
13894 1 0.319967 0.239902 0.0569112
138 1 0.399675 0.264753 0.0823808
4703 1 0.397399 0.285909 0.026395
7372 1 0.339497 0.299543 0.0539883
11706 1 0.360906 0.294208 0.022257
30 1 0.364778 0.208001 0.00708813
602 1 0.315849 0.22308 0.0232927
976 1 0.308036 0.292479 0.0376581
10490 1 0.432777 0.224126 0.0424656
786 1 0.434651 0.293461 0.0272002
11189 1 0.410425 0.256531 0.0450343
8746 1 0.425553 0.220064 0.0783433
11294 1 0.467358 0.240494 0.0490774
10395 1 0.447751 0.260484 0.0240133
2953 1 0.410236 0.29919 0.0565188
9120 1 0.440342 0.272095 0.0610632
308 1 0.476945 0.217372 0.0741106
3314 1 0.49575 0.267498 0.041434
9271 1 0.481576 0.284091 0.0755264
13077 1 0.427661 0.298782 0.0895421
11510 1 0.499994 0.240905 0.0129996
14315 1 0.40727 0.207003 0.00886807
9953 1 0.476147 0.293342 0.0144646
9014 1 0.435807 0.226339 0.00138034
12705 1 0.457362 0.248817 0.092455
12097 1 0.478538 0.208619 0.0199893
10471 1 0.491315 0.251255 0.0802644
8886 1 0.0313322 0.360275 0.0852179
7608 1 0.0625086 0.375583 0.0242666
11499 1 0.0664749 0.362393 0.0640899
10070 1 0.0366937 0.372975 0.0481228
431 1 0.0360229 0.313589 0.0991393
2229 1 0.0679597 0.328006 0.0505418
3393 1 0.0972884 0.346714 0.0385368
11272 1 0.0927639 0.376324 0.0881638
3518 1 0.0730502 0.333823 0.0100073
8389 1 0.0746159 0.325232 0.0935857
10063 1 0.00792198 0.353122 0.0467705
3897 1 0.0914696 0.308127 0.0646435
1135 1 0.0377987 0.337947 0.0243255
12088 1 0.0302186 0.321174 0.0618227
3106 1 0.00436654 0.309382 0.020536
6500 1 0.0971373 0.359542 0.000783381
2217 1 0.143132 0.308204 0.0213377
2145 1 0.113704 0.31198 0.0992975
2772 1 0.165339 0.309711 0.0497294
11994 1 0.103838 0.315714 0.0184482
224 1 0.142802 0.343105 0.0411357
1996 1 0.16958 0.384373 0.0690129
10046 1 0.175612 0.36124 0.0353174
1256 1 0.199452 0.386355 0.0378545
1510 1 0.163005 0.346869 0.0737393
5288 1 0.196797 0.313768 0.0192592
6757 1 0.195816 0.330631 0.0547115
1523 1 0.11368 0.341702 0.0727184
4903 1 0.125381 0.378246 0.0445918
1079 1 0.130141 0.381644 0.0922475
2309 1 0.199574 0.33348 0.0995619
9366 1 0.159624 0.339605 0.00609667
736 1 0.14618 0.377995 0.00419026
1532 1 0.202427 0.365345 0.0788783
245 1 0.25403 0.353567 0.0745061
2575 1 0.27575 0.301569 0.0242438
2677 1 0.280245 0.336726 0.0147997
1663 1 0.28368 0.33729 0.0524131
2386 1 0.231783 0.399202 0.0686262
2812 1 0.242531 0.326685 0.0388014
1946 1 0.268977 0.374757 0.0347129
8365 1 0.296696 0.396476 0.0778024
587 1 0.256727 0.320988 0.0981821
2811 1 0.277786 0.370323 0.0955735
2208 1 0.220955 0.360754 0.0467906
5303 1 0.201332 0.355817 0.00933784
3398 1 0.239399 0.318706 0.00169905
2314 1 0.236239 0.389826 0.0206364
3027 1 0.310458 0.31225 0.0763414
565 1 0.311795 0.358669 0.0714501
8771 1 0.35477 0.325325 0.0117667
4756 1 0.331498 0.386137 0.092966
6057 1 0.360394 0.338508 0.0799299
1569 1 0.381042 0.336156 0.044837
2728 1 0.351866 0.373064 0.0592763
1304 1 0.308893 0.369192 0.0362207
1530 1 0.318498 0.323196 0.0123429
1668 1 0.349052 0.364811 0.013339
5816 1 0.391022 0.374178 0.0279473
12067 1 0.385137 0.304638 0.0810404
1926 1 0.313304 0.357965 0.00393579
2433 1 0.392535 0.329396 0.00557438
1103 1 0.443289 0.327542 0.0698632
10213 1 0.401281 0.374512 0.0851177
9521 1 0.425466 0.361105 0.0235057
3458 1 0.418393 0.330645 0.0375749
447 1 0.43459 0.32415 0.00522039
334 1 0.429045 0.391722 0.0502647
9561 1 0.443434 0.357229 0.0854741
10703 1 0.498727 0.384201 0.0468222
846 1 0.486792 0.329364 0.0276182
14027 1 0.485204 0.319422 0.0747529
13277 1 0.455092 0.356246 0.0408068
1973 1 0.495397 0.349238 0.0957988
3496 1 0.454561 0.393563 0.0217753
9897 1 0.467024 0.393418 0.0583986
5764 1 0.482261 0.365128 0.0138681
1464 1 0.455969 0.301918 0.0518525
9299 1 0.0307179 0.442441 0.03327
1038 1 0.0852398 0.40575 0.0384334
3382 1 0.0612774 0.403055 0.0676938
15152 1 0.02075 0.40436 0.0384982
1143 1 0.0981194 0.442696 0.0475072
5871 1 0.0677204 0.441901 0.018728
14631 1 0.0956736 0.446067 0.0864399
384 1 0.0853433 0.480983 0.059257
2104 1 0.0502355 0.410381 0.00526947
15603 1 0.0123663 0.480231 0.00673833
11885 1 0.0635223 0.442288 0.0560061
765 1 0.0787646 0.478262 0.0225936
5409 1 0.0182985 0.408602 0.0756097
14448 1 0.0775172 0.41798 0.0988462
5544 1 0.032466 0.448051 0.0716687
2796 1 0.0424694 0.484142 0.0242048
10904 1 0.0102685 0.478059 0.0528697
6588 1 0.183671 0.497273 0.0938155
1447 1 0.108159 0.41126 0.0752012
10136 1 0.172412 0.406022 0.0311741
4947 1 0.169431 0.449453 0.0747669
8163 1 0.135453 0.417232 0.0515954
2988 1 0.128169 0.465617 0.039523
2749 1 0.130667 0.487846 0.0119784
3373 1 0.163626 0.486034 0.0318129
2484 1 0.138741 0.415112 0.0114746
8912 1 0.157663 0.447365 0.0245193
896 1 0.196745 0.435817 0.038531
6079 1 0.197449 0.472925 0.0497839
11530 1 0.102403 0.430605 0.0114546
8971 1 0.133362 0.462422 0.0774464
9757 1 0.152993 0.414171 0.0891661
3761 1 0.155674 0.495692 0.0702776
7294 1 0.197373 0.411119 0.0720253
12696 1 0.117545 0.497369 0.0713007
9462 1 0.199613 0.406251 0.00254278
3091 1 0.234326 0.454412 0.0234323
15195 1 0.204104 0.460011 0.0974013
2689 1 0.250706 0.423005 0.0365518
2185 1 0.238145 0.489856 0.0380379
1451 1 0.275364 0.457553 0.0835599
8166 1 0.264556 0.466057 0.0456611
1188 1 0.298734 0.439093 0.0470363
702 1 0.291566 0.406087 0.0258087
3963 1 0.23456 0.451672 0.0629143
669 1 0.262263 0.48911 0.0705057
4437 1 0.273281 0.424637 0.0680444
6431 1 0.20218 0.485821 0.0118228
12190 1 0.293586 0.485631 0.00571038
2880 1 0.225332 0.493422 0.0802088
1279 1 0.308243 0.488621 0.0824666
2742 1 0.336495 0.416525 0.071007
9320 1 0.384495 0.406407 0.0420923
8000 1 0.335805 0.464569 0.09747
663 1 0.373129 0.438261 0.0724062
1598 1 0.397334 0.445613 0.0116809
4320 1 0.335362 0.492961 0.00974676
3996 1 0.310143 0.437558 0.0858393
2769 1 0.36506 0.400926 0.0954414
252 1 0.341017 0.403263 0.0392164
8384 1 0.355334 0.436574 0.0304209
27 1 0.332363 0.40109 0.00507352
10292 1 0.382072 0.460519 0.0435578
3362 1 0.304425 0.47699 0.0428828
6085 1 0.344598 0.466864 0.0504947
1243 1 0.379035 0.4787 0.0779659
4735 1 0.362362 0.469732 0.00271941
3834 1 0.328611 0.453508 0.00212524
10355 1 0.421684 0.455536 0.0478089
374 1 0.406817 0.45491 0.0847781
12490 1 0.407504 0.486381 0.0522214
7756 1 0.489953 0.481108 0.0261073
8412 1 0.473733 0.416556 0.099678
3783 1 0.417015 0.408159 0.00491689
12950 1 0.449682 0.440338 0.0742535
5297 1 0.407214 0.421382 0.0717367
660 1 0.471878 0.435362 0.0465525
9569 1 0.44533 0.472206 0.0194235
706 1 0.438672 0.401859 0.0927999
13966 1 0.497134 0.444556 0.0801283
13867 1 0.43853 0.431202 0.0178242
13535 1 0.467881 0.476214 0.0726738
9662 1 0.48841 0.407887 0.0184667
169 1 0.431457 0.480863 0.080268
15095 1 0.0987076 0.0539916 0.100623
5473 1 0.0323318 0.0816025 0.167599
8200 1 0.0491894 0.0717689 0.126865
4511 1 0.049856 0.0145045 0.139531
2042 1 0.0969597 0.0931648 0.114672
1338 1 0.0700303 0.0528862 0.177477
6077 1 0.0923467 0.00243019 0.180938
8109 1 0.0469168 0.0367533 0.111981
2499 1 0.037485 0.0351487 0.172087
14291 1 0.0112149 0.036958 0.141179
2584 1 0.0919421 0.0797068 0.172818
4427 1 0.0801187 0.0398331 0.136535
6009 1 0.00120422 0.0534395 0.172714
11868 1 0.0153077 0.0560804 0.112224
4448 1 0.0969165 0.0176543 0.112594
8638 1 0.00886277 0.0877027 0.136394
11218 1 0.120566 0.0408528 0.136548
2485 1 0.188449 0.0472604 0.102519
13702 1 0.140059 0.00913077 0.148242
3555 1 0.13451 0.0140171 0.100405
3401 1 0.170958 0.065466 0.17795
6213 1 0.119161 0.0819685 0.141604
4719 1 0.106443 0.000839412 0.142705
3220 1 0.197644 0.0875774 0.191876
4230 1 0.121557 0.0362618 0.173548
5945 1 0.186651 0.03912 0.141096
8385 1 0.148975 0.0603796 0.149295
6053 1 0.181238 0.0774982 0.139341
991 1 0.132087 0.0995592 0.179641
261 1 0.153001 0.0382672 0.119634
2369 1 0.198487 0.0511101 0.193155
5992 1 0.178718 0.00257572 0.15525
10484 1 0.173929 0.00689603 0.11392
3774 1 0.13931 0.0745639 0.106367
479 1 0.154528 0.0238169 0.182228
349 1 0.256412 0.052398 0.127309
5183 1 0.220568 0.0233108 0.182358
3567 1 0.217166 0.0996121 0.108011
1807 1 0.219845 0.0577206 0.122062
13008 1 0.269331 0.0829781 0.103984
9973 1 0.216452 0.0900023 0.149199
3169 1 0.277946 0.0601308 0.156259
6682 1 0.245239 0.0320429 0.156198
5295 1 0.252789 0.00660354 0.185655
4575 1 0.254224 0.0955862 0.139955
6535 1 0.272863 0.0124028 0.14598
8681 1 0.296688 0.0494413 0.111605
8857 1 0.266324 0.046812 0.188843
733 1 0.244683 0.0694578 0.171745
3302 1 0.29576 0.0208398 0.1809
8586 1 0.223032 0.0139024 0.134112
2276 1 0.305713 0.00717162 0.101654
7538 1 0.335303 0.0178837 0.172319
14475 1 0.372106 0.0146067 0.156621
357 1 0.314398 0.0524429 0.153081
594 1 0.303805 0.0988178 0.121972
14376 1 0.337033 0.0784417 0.13913
7176 1 0.397611 0.0312055 0.135796
3233 1 0.305066 0.085252 0.159433
61 1 0.387291 0.0685946 0.108228
7292 1 0.364312 0.0951759 0.154698
754 1 0.348224 0.0570892 0.188816
8489 1 0.396938 0.0848827 0.179761
16075 1 0.309491 0.0725141 0.199736
10854 1 0.310546 0.00373531 0.141365
998 1 0.368274 0.0581438 0.150804
4644 1 0.342926 0.0251446 0.127259
15788 1 0.395956 0.0434479 0.172082
1730 1 0.433682 0.0303303 0.1483
13667 1 0.484017 0.0423623 0.165956
4078 1 0.472802 0.0148557 0.144119
3456 1 0.431071 0.0530452 0.113243
2865 1 0.441325 0.00316188 0.122067
2005 1 0.409285 0.0712654 0.145315
10022 1 0.425001 0.0961989 0.126494
2840 1 0.435523 0.0895503 0.16374
1077 1 0.475826 0.00990691 0.191076
6207 1 0.4123 0.00197504 0.167743
13745 1 0.499747 0.0840987 0.191079
6864 1 0.446043 0.00210166 0.164254
9439 1 0.494083 0.0835902 0.154932
4475 1 0.445044 0.0492035 0.182084
13172 1 0.498481 0.0598015 0.13109
10633 1 0.452551 0.0634297 0.143236
13752 1 0.473856 0.0310573 0.109039
3653 1 0.0761765 0.13874 0.125398
3354 1 0.0208129 0.169215 0.178855
59 1 0.0584692 0.17407 0.16776
686 1 0.0328049 0.16149 0.110015
4862 1 0.0363233 0.121611 0.122782
8207 1 0.0697983 0.189644 0.127337
11401 1 0.00729926 0.170826 0.134164
333 1 0.0285239 0.19874 0.115458
9770 1 0.0226753 0.122236 0.159899
5649 1 0.0647286 0.110534 0.100736
832 1 0.0717579 0.136818 0.170301
5453 1 0.0837708 0.108024 0.194009
1591 1 0.0625278 0.103713 0.147307
9799 1 0.093572 0.178378 0.196762
5095 1 0.0964733 0.175524 0.153897
8991 1 0.0138637 0.10572 0.197289
621 1 0.101956 0.11455 0.158012
7002 1 0.158412 0.101725 0.129963
1001 1 0.125891 0.112278 0.114322
2316 1 0.140287 0.191499 0.111057
7093 1 0.112656 0.165223 0.118076
9006 1 0.154968 0.149997 0.137004
2495 1 0.11037 0.141914 0.190076
1265 1 0.134287 0.162035 0.164881
4099 1 0.145285 0.123567 0.159371
3275 1 0.170217 0.103078 0.172411
1213 1 0.12541 0.199562 0.141703
1844 1 0.171096 0.16038 0.105274
407 1 0.169231 0.181655 0.149906
1102 1 0.195845 0.179793 0.179799
992 1 0.169295 0.149514 0.179164
11378 1 0.104088 0.198142 0.104102
13772 1 0.192872 0.115845 0.140752
773 1 0.28643 0.165331 0.100292
6065 1 0.228587 0.175954 0.145143
4733 1 0.266809 0.125005 0.104944
6113 1 0.242516 0.138568 0.165746
2151 1 0.282264 0.123991 0.152229
1495 1 0.205459 0.153833 0.122444
1785 1 0.265393 0.151559 0.129826
3873 1 0.235829 0.126403 0.127259
194 1 0.2403 0.151549 0.100398
1535 1 0.234774 0.105637 0.186554
1693 1 0.275211 0.106358 0.182621
13066 1 0.2659 0.169076 0.162372
5768 1 0.284229 0.150077 0.195758
2458 1 0.206766 0.13256 0.178176
359 1 0.300322 0.1857 0.133705
5517 1 0.351987 0.139071 0.101977
7903 1 0.32173 0.12395 0.149196
5822 1 0.311557 0.112547 0.184653
8845 1 0.393863 0.11592 0.163474
473 1 0.344388 0.181024 0.103828
1937 1 0.304935 0.162851 0.16192
2578 1 0.301059 0.135121 0.122583
8989 1 0.375594 0.159902 0.13112
10008 1 0.372896 0.10393 0.110859
5497 1 0.35995 0.155206 0.1732
14041 1 0.356872 0.191172 0.159492
1636 1 0.391598 0.142973 0.189789
548 1 0.331244 0.159294 0.136495
9230 1 0.347423 0.118893 0.180162
9480 1 0.359124 0.131939 0.144287
4759 1 0.397548 0.188163 0.156299
8417 1 0.394359 0.185902 0.198235
5793 1 0.315031 0.199749 0.162481
1796 1 0.321472 0.14907 0.190428
4831 1 0.481197 0.144627 0.123898
9615 1 0.45646 0.116369 0.195223
4247 1 0.407019 0.136989 0.123095
8642 1 0.405463 0.149201 0.156937
11712 1 0.405258 0.174059 0.115685
1983 1 0.456955 0.196125 0.105183
13087 1 0.483172 0.185113 0.131738
9869 1 0.437323 0.156076 0.130208
5149 1 0.421346 0.111626 0.189285
879 1 0.496677 0.159925 0.155695
9249 1 0.455484 0.178766 0.195123
3876 1 0.422695 0.159827 0.190163
8574 1 0.443304 0.128328 0.107283
1459 1 0.46033 0.154699 0.163127
1733 1 0.48779 0.108341 0.12837
12644 1 0.475914 0.114569 0.16091
12006 1 0.430956 0.196039 0.139291
3478 1 0.433006 0.125453 0.152637
5038 1 0.489869 0.191548 0.173651
13080 1 0.496112 0.181689 0.100591
434 1 0.0164851 0.203466 0.15378
10192 1 0.0904725 0.221617 0.139731
2269 1 0.0525618 0.229487 0.118825
8254 1 0.0302238 0.283398 0.122796
489 1 0.0767437 0.259032 0.166064
5235 1 0.086398 0.244299 0.107931
284 1 0.0383626 0.277284 0.165891
1123 1 0.00319635 0.203915 0.19249
1452 1 0.0263071 0.24355 0.147897
9075 1 0.0971099 0.211617 0.176281
11315 1 0.0950409 0.293046 0.173102
9607 1 0.0647715 0.270034 0.133345
9329 1 0.00354206 0.299879 0.102682
9443 1 0.046118 0.227748 0.169103
12328 1 0.0165521 0.258542 0.197918
639 1 0.112434 0.266314 0.130728
10370 1 0.151829 0.28352 0.1139
382 1 0.159687 0.242279 0.15034
532 1 0.170466 0.2117 0.119239
4275 1 0.195843 0.218946 0.152423
10437 1 0.119775 0.239997 0.154777
6463 1 0.143972 0.205938 0.170246
10093 1 0.166562 0.293427 0.156495
1748 1 0.139375 0.243529 0.186086
3055 1 0.103573 0.253869 0.193249
3222 1 0.129975 0.28423 0.163749
682 1 0.132702 0.234329 0.123143
579 1 0.163831 0.278563 0.191827
4414 1 0.190347 0.245524 0.121359
688 1 0.216182 0.227466 0.100229
1671 1 0.275802 0.226495 0.142105
1886 1 0.275411 0.256213 0.109788
7517 1 0.209859 0.226635 0.188449
5083 1 0.236012 0.203073 0.173044
1110 1 0.246287 0.204651 0.130607
36 1 0.243151 0.24308 0.122777
8017 1 0.282346 0.211708 0.178317
8171 1 0.267448 0.221945 0.103376
3856 1 0.203053 0.282525 0.183334
519 1 0.209526 0.271334 0.137157
9002 1 0.257008 0.280567 0.132845
4062 1 0.238703 0.245385 0.161393
406 1 0.276532 0.262239 0.168272
1970 1 0.248449 0.221634 0.198699
5578 1 0.23707 0.298761 0.181428
15506 1 0.313126 0.27035 0.16738
1028 1 0.302908 0.233499 0.110066
537 1 0.376019 0.20383 0.12334
2401 1 0.321546 0.235142 0.152343
13431 1 0.393327 0.243895 0.140332
734 1 0.342046 0.244871 0.114211
4167 1 0.370401 0.278353 0.105428
1462 1 0.334941 0.20542 0.130194
4938 1 0.365018 0.266501 0.180278
3372 1 0.36175 0.229911 0.148066
8707 1 0.305009 0.240738 0.192329
9545 1 0.344515 0.225574 0.186548
8872 1 0.390905 0.220461 0.176845
9263 1 0.351577 0.265118 0.144386
3878 1 0.365169 0.298711 0.152798
6067 1 0.39862 0.294371 0.120756
9016 1 0.304082 0.267708 0.129747
509 1 0.365826 0.299104 0.194445
13039 1 0.433346 0.229109 0.124814
196 1 0.472782 0.261125 0.187299
10740 1 0.482901 0.217562 0.113231
231 1 0.488365 0.295579 0.108278
11084 1 0.421312 0.26287 0.117366
8306 1 0.494929 0.290001 0.152294
9291 1 0.407444 0.259668 0.175503
155 1 0.45808 0.290564 0.12449
792 1 0.493563 0.226884 0.175946
1091 1 0.462637 0.209205 0.152425
1619 1 0.442633 0.277539 0.180462
9238 1 0.428775 0.211956 0.179134
1753 1 0.490613 0.299214 0.191966
9414 1 0.46134 0.251081 0.154084
12111 1 0.494019 0.25448 0.123347
5783 1 0.0405875 0.38289 0.113567
279 1 0.0993023 0.340577 0.117257
11735 1 0.0477715 0.395019 0.153401
1139 1 0.0669312 0.32418 0.167667
9874 1 0.033716 0.345171 0.118055
70 1 0.0912812 0.375622 0.133683
9809 1 0.095454 0.340151 0.197992
7254 1 0.0600208 0.348286 0.143598
657 1 0.0313254 0.319212 0.163733
1917 1 0.0600198 0.310007 0.13028
4762 1 0.0957474 0.391915 0.169135
1208 1 0.0391823 0.342731 0.199748
10467 1 0.0102462 0.318939 0.132004
581 1 0.0747049 0.370834 0.191424
1819 1 0.0905219 0.346348 0.158762
6093 1 0.042496 0.388029 0.195715
3703 1 0.0224146 0.366118 0.169016
95 1 0.00879817 0.387112 0.137732
1218 1 0.168996 0.315173 0.11197
1651 1 0.142982 0.318917 0.134411
14503 1 0.172386 0.356088 0.120948
2851 1 0.104516 0.310295 0.138959
3863 1 0.192821 0.316834 0.140502
9400 1 0.143005 0.386271 0.126794
13447 1 0.176293 0.325656 0.179342
1341 1 0.139709 0.337622 0.100933
2222 1 0.178318 0.390824 0.114225
8972 1 0.117706 0.370297 0.18841
1349 1 0.128266 0.35347 0.145998
1027 1 0.128909 0.329448 0.177232
13047 1 0.152414 0.379129 0.163719
1444 1 0.221899 0.30207 0.1129
1645 1 0.209627 0.356943 0.178874
8783 1 0.223689 0.30798 0.150106
8554 1 0.290839 0.300661 0.180698
9902 1 0.222771 0.38981 0.107006
2611 1 0.241576 0.352725 0.11017
1948 1 0.214913 0.343752 0.13356
82 1 0.216485 0.383686 0.148214
2610 1 0.267362 0.313405 0.146723
1991 1 0.247952 0.349647 0.157442
10361 1 0.287332 0.352032 0.154906
10332 1 0.288361 0.327651 0.11786
9325 1 0.294526 0.391616 0.119475
6043 1 0.267946 0.374751 0.172203
3686 1 0.254199 0.383671 0.132171
1747 1 0.235587 0.397497 0.182939
8726 1 0.357654 0.321193 0.115786
1894 1 0.330369 0.344515 0.110551
397 1 0.318559 0.369982 0.135487
12674 1 0.398997 0.399689 0.116604
9436 1 0.327657 0.303407 0.126723
9755 1 0.301978 0.383492 0.168129
430 1 0.385468 0.360189 0.14561
2493 1 0.345195 0.341423 0.143865
10122 1 0.351636 0.368893 0.164772
2589 1 0.385245 0.347936 0.107839
1597 1 0.391894 0.324241 0.155363
4802 1 0.370848 0.397927 0.146012
1903 1 0.398441 0.382104 0.17808
3649 1 0.357435 0.366547 0.120903
697 1 0.313999 0.344518 0.183167
4302 1 0.324569 0.310661 0.166141
8867 1 0.35809 0.331231 0.1794
1508 1 0.369387 0.376475 0.198654
1053 1 0.395565 0.344601 0.192115
9781 1 0.470701 0.340024 0.142368
1998 1 0.413984 0.300421 0.181707
10311 1 0.420786 0.347265 0.160961
9100 1 0.418895 0.336491 0.106033
619 1 0.466561 0.327996 0.104356
625 1 0.432735 0.373252 0.11767
14111 1 0.436722 0.339588 0.199303
1686 1 0.438493 0.321289 0.131652
16205 1 0.485363 0.372845 0.158768
8448 1 0.446338 0.319024 0.171365
8362 1 0.44932 0.369833 0.17377
10387 1 0.476757 0.335035 0.179988
9352 1 0.471446 0.370778 0.11189
5903 1 0.0633691 0.481809 0.19508
7490 1 0.0476182 0.448832 0.141422
12909 1 0.010886 0.422333 0.187356
1315 1 0.0406549 0.495322 0.110381
9899 1 0.0531638 0.442569 0.103091
4211 1 0.0984416 0.48556 0.102932
8137 1 0.0985516 0.486629 0.17746
12664 1 0.00907729 0.459374 0.14214
6000 1 0.0547939 0.429412 0.175117
9584 1 0.0720953 0.421029 0.13703
12885 1 0.0801152 0.45352 0.162177
1446 1 0.0805463 0.456978 0.124041
189 1 0.0871136 0.452271 0.199428
4623 1 0.0152222 0.443638 0.106396
13137 1 0.0267424 0.467562 0.186085
3611 1 0.0243057 0.424004 0.154235
16201 1 0.050419 0.486462 0.156682
13225 1 0.0153066 0.494158 0.143738
8540 1 0.113903 0.424632 0.109549
3327 1 0.188893 0.429888 0.174878
5028 1 0.114711 0.406814 0.141391
5177 1 0.192447 0.425898 0.103621
1613 1 0.172817 0.407122 0.195657
644 1 0.154592 0.446859 0.157207
2427 1 0.122485 0.459132 0.116749
4910 1 0.136242 0.477644 0.154743
1618 1 0.115791 0.444048 0.161362
13865 1 0.154348 0.428798 0.122401
1985 1 0.166945 0.468227 0.120702
8367 1 0.166559 0.488727 0.176854
1196 1 0.137858 0.412806 0.16762
345 1 0.174163 0.407409 0.1457
5051 1 0.153521 0.44952 0.193133
15379 1 0.187448 0.46164 0.190878
14682 1 0.102504 0.487569 0.144745
4027 1 0.289403 0.482554 0.176412
11205 1 0.267777 0.418979 0.111674
5058 1 0.2011 0.488095 0.165788
535 1 0.229117 0.427705 0.100686
7560 1 0.269121 0.415194 0.167893
1411 1 0.263309 0.439756 0.1926
732 1 0.230105 0.438172 0.172324
79 1 0.20004 0.455486 0.137918
1902 1 0.236251 0.426193 0.139478
507 1 0.227944 0.478879 0.138381
9427 1 0.25654 0.453885 0.156575
4091 1 0.257947 0.476076 0.198642
4642 1 0.255356 0.460222 0.118934
1160 1 0.291897 0.460281 0.128294
5621 1 0.397564 0.471405 0.137779
12406 1 0.337962 0.416615 0.163865
13870 1 0.314718 0.452029 0.160145
181 1 0.325233 0.488534 0.156996
13793 1 0.30095 0.418085 0.140992
5347 1 0.33203 0.403212 0.128202
5950 1 0.323919 0.445425 0.127008
8706 1 0.355616 0.469048 0.136328
134 1 0.355744 0.450457 0.182457
9374 1 0.355596 0.432502 0.129525
523 1 0.388726 0.420377 0.180144
2669 1 0.35932 0.491522 0.189941
2906 1 0.312976 0.407226 0.193772
4220 1 0.326621 0.471342 0.190805
13291 1 0.380383 0.454981 0.106118
7807 1 0.324117 0.494216 0.118861
87 1 0.389972 0.466182 0.179717
3520 1 0.3914 0.430983 0.134932
8960 1 0.461479 0.488945 0.131308
9696 1 0.438519 0.410574 0.182999
11814 1 0.425759 0.435854 0.113046
12478 1 0.436768 0.411749 0.14311
205 1 0.497026 0.472802 0.149205
10363 1 0.400137 0.497936 0.106866
13918 1 0.477115 0.45431 0.176128
12448 1 0.495264 0.476948 0.105267
3349 1 0.490784 0.441983 0.127791
12577 1 0.451274 0.46628 0.104868
2729 1 0.433012 0.443789 0.175994
15090 1 0.435232 0.461979 0.141496
5729 1 0.476565 0.41268 0.161407
9274 1 0.448008 0.481129 0.185378
3799 1 0.420627 0.491977 0.165153
4129 1 0.0871407 0.0789636 0.217522
8865 1 0.0214575 0.0231926 0.296305
1669 1 0.0336491 0.0067093 0.207827
5016 1 0.00743938 0.0351473 0.22373
3985 1 0.0700147 0.0560447 0.263715
11643 1 0.00474876 0.0626508 0.272684
6490 1 0.0594074 0.0227474 0.282101
13439 1 0.0508614 0.0888458 0.21217
2130 1 0.0875719 0.0333542 0.21194
5056 1 0.0954729 0.0107061 0.287317
4755 1 0.0516397 0.0448745 0.228261
4538 1 0.0684043 0.0124995 0.241864
9039 1 0.0284435 0.0193654 0.260333
8672 1 0.0839102 0.0984722 0.255862
8644 1 0.0420317 0.0820814 0.254812
10006 1 0.0658291 0.0803703 0.289089
2945 1 0.0237278 0.0847073 0.29404
13468 1 0.0279885 0.0566483 0.202795
10869 1 0.140572 0.0976783 0.240215
6881 1 0.112908 0.0714473 0.24083
4686 1 0.186503 0.0171058 0.206237
5429 1 0.195197 0.0658141 0.230514
4643 1 0.137588 0.0822879 0.285789
13928 1 0.128019 0.0432854 0.283262
2889 1 0.147169 0.0602725 0.258255
655 1 0.102498 0.0690482 0.292024
9481 1 0.15585 0.0186176 0.261254
1311 1 0.166942 0.0953407 0.209358
4843 1 0.17845 0.0135196 0.288931
5160 1 0.17214 0.0521677 0.285882
4153 1 0.136329 0.0684194 0.209963
1055 1 0.160194 0.038591 0.227889
4144 1 0.108787 0.0335496 0.257517
8533 1 0.130129 0.0235792 0.208238
4351 1 0.131792 0.00139836 0.280827
1788 1 0.258145 0.0374027 0.225316