ITEM: TIMESTEP
10000
ITEM: NUMBER OF ATOMS
16384
ITEM: BOX BOUNDS pp pp pp
0.0000000000000000e+00 8.0764399999999995e+01
0.0000000000000000e+00 8.0764399999999995e+01
0.0000000000000000e+00 8.0764399999999995e+01
ITEM: ATOMS id type xs ys zs
1995 1 0.0406919 0.0411169 0.0457517
6239 1 0.0664696 0.0868344 0.0646849
2862 1 0.276382 0.316415 0.0102909
2265 1 0.340461 0.0827001 0.00718791
5187 1 0.032123 0.0548704 0.0802041
3678 1 0.049089 0.075183 0.0244318
4400 1 0.12801 0.00237464 0.472507
3962 1 0.0704429 0.0529206 0.0761167
5733 1 0.216835 0.0145049 0.471365
11383 1 0.00607324 0.0657764 0.0282629
3927 1 0.0862072 0.0448817 0.0406309
3322 1 0.324956 0.231751 0.00547071
13373 1 0.0329232 0.165268 0.487642
12959 1 0.476752 0.440657 0.162238
5313 1 0.110539 0.0107722 0.107604
475 1 0.085222 0.0885438 0.0954637
4566 1 0.284045 0.467508 0.44174
8333 1 0.0966282 0.487843 0.0159521
12331 1 0.498716 0.050299 0.146836
6472 1 0.197872 0.0838495 0.0239395
6156 1 0.155482 0.0427265 0.0494823
588 1 0.114094 0.073396 0.0394597
1315 1 0.122757 0.0326338 0.0614403
1688 1 0.15304 0.0133003 0.0901292
2960 1 0.106427 0.0563419 0.0903381
1838 1 0.41962 0.0347503 0.157943
539 1 0.495106 0.290263 0.436766
1091 1 0.125791 0.0554556 0.126589
5076 1 0.15699 0.0528946 0.0883282
9779 1 0.457225 0.112942 0.0598895
8908 1 0.399398 0.00138463 0.266214
5833 1 0.122071 0.0408105 0.0202396
5822 1 0.154035 0.0656505 0.0176273
3530 1 0.174955 0.0700561 0.126916
2893 1 0.359689 0.228685 0.499464
173 1 0.189416 0.0302489 0.100847
148 1 0.225817 0.122898 0.0444957
3065 1 0.276625 0.0656401 0.0709251
204 1 0.288413 0.00319362 0.0399885
565 1 0.256121 0.0275625 0.0543399
916 1 0.473642 0.272234 0.29305
459 1 0.280807 0.0362129 0.0231145
1873 1 0.0425799 0.0335932 0.223169
2406 1 0.322467 0.456127 0.476477
2293 1 0.307328 0.120875 0.010615
3978 1 0.317148 0.100868 0.0834895
4978 1 0.22154 0.0475393 0.0149578
3049 1 0.229225 0.056433 0.0546152
4332 1 0.218446 0.00775588 0.0322683
5706 1 0.307856 0.0566294 0.0438729
5585 1 0.243749 0.0120084 0.193112
994 1 0.299518 0.0265103 0.067401
8017 1 0.144727 0.267793 0.0117828
9514 1 0.416648 0.0526011 0.0419831
248 1 0.499458 0.0910915 0.290585
470 1 0.303627 0.0603063 0.094127
2269 1 0.118024 0.0941414 0.0060332
6904 1 0.338862 0.0460699 0.100263
87 1 0.478837 0.159107 0.160129
3385 1 0.386456 0.097731 0.0680627
12667 1 0.485541 0.0486305 0.380207
413 1 0.1978 0.478811 0.0175577
2425 1 0.326498 0.0215216 0.0153097
2589 1 0.391845 0.0622927 0.0145858
2316 1 0.344686 0.0221491 0.0584189
1938 1 0.348815 0.0545035 0.0296984
1680 1 0.24297 0.424026 0.015075
8707 1 0.471015 0.0459134 0.119984
374 1 0.478159 0.202013 0.339039
3299 1 0.348613 0.301323 0.484411
12326 1 0.414797 0.0324616 0.00874413
1543 1 0.48781 0.0381819 0.0195773
11748 1 0.480284 0.0172876 0.0958163
9617 1 0.451228 0.0283292 0.0393068
441 1 0.49754 0.000186332 0.242389
7529 1 0.0894975 0.0665879 0.00227994
13101 1 0.487671 0.0215115 0.0549893
899 1 0.0228568 0.300455 0.254034
10867 1 0.483682 0.174571 0.0855804
2544 1 0.173504 0.307435 0.00477323
2502 1 0.42959 0.0296228 0.0736951
9451 1 0.382481 0.230307 0.0365295
732 1 0.44744 0.0485991 0.00373034
3381 1 0.0452379 0.114158 0.043473
401 1 0.064185 0.111862 0.119975
11874 1 0.00973703 0.144351 0.0559551
2456 1 0.0597522 0.166644 0.048971
1704 1 0.00379042 0.114581 0.0224353
10613 1 0.079741 0.133521 0.029484
115 1 0.0977464 0.171506 0.026895
366 1 0.310135 0.448217 0.158697
2556 1 0.0795375 0.126864 0.0733851
1190 1 0.049839 0.204667 0.0626502
9416 1 0.0487671 0.162766 0.0151915
3620 1 0.0419079 0.279154 0.0109982
1810 1 0.349875 0.12198 0.456584
1857 1 0.102659 0.210908 0.0421696
2379 1 0.0671449 0.200696 0.0259008
1444 1 0.0445449 0.231751 0.0931872
630 1 0.106656 0.1028 0.0623153
3702 1 0.129066 0.0948149 0.0938582
2734 1 0.125606 0.142505 0.0794599
5611 1 0.16535 0.0835112 0.0540478
2998 1 0.128069 0.186599 0.0581632
3446 1 0.129493 0.117242 0.030666
3697 1 0.0974417 0.163385 0.0628725
1671 1 0.00605185 0.350996 0.473334
5950 1 0.408398 0.497843 0.33671
1725 1 0.171891 0.0897433 0.0915846
4328 1 0.16916 0.143767 0.041978
3864 1 0.213273 0.168386 0.0762921
5194 1 0.0223014 0.00670304 0.4627
13465 1 0.481693 0.481594 0.340703
13794 1 0.467288 0.458835 0.26362
3407 1 0.260562 0.12326 0.0235848
5443 1 0.258339 0.0965305 0.0643307
658 1 0.20496 0.134198 0.0102409
1459 1 0.261183 0.0721365 0.106825
1351 1 0.285022 0.126426 0.0557538
254 1 0.246731 0.1983 0.0712842
5820 1 0.00460279 0.0906724 0.15943
2172 1 0.328982 0.13926 0.0385424
3916 1 0.290631 0.159894 0.0340693
3958 1 0.267765 0.203934 0.00742723
7683 1 0.325046 0.100203 0.040486
2967 1 0.127584 0.196608 0.0117528
8547 1 0.490759 0.00796082 0.135776
515 1 0.243615 0.183281 0.147237
3813 1 0.247975 0.162688 0.0417899
10298 1 0.344201 0.075063 0.067253
555 1 0.281034 0.110934 0.0945295
12276 1 0.488787 0.012183 0.395265
1412 1 0.366043 0.0942058 0.0346831
10693 1 0.359545 0.121318 0.0608057
9712 1 0.366272 0.128999 0.0185061
3218 1 0.408801 0.140219 0.016776
10172 1 0.0259784 0.202212 0.169829
1878 1 0.360942 0.0936311 0.0963373
700 1 0.440125 0.15044 0.040156
2487 1 0.363426 0.156198 0.0460567
398 1 0.344194 0.0745336 0.126945
3559 1 0.394014 0.13401 0.0525533
1955 1 0.391158 0.175788 0.0859814
5549 1 0.152452 0.437518 0.159165
3699 1 0.0113186 0.316466 0.487039
1052 1 0.383093 0.182464 0.00982448
9840 1 0.477409 0.383123 0.249999
758 1 0.0980304 0.262243 0.00622859
3948 1 0.422173 0.108089 0.0409723
12515 1 0.493978 0.190877 0.493124
2696 1 0.423504 0.126051 0.0865618
230 1 0.40071 0.0982176 0.101096
446 1 0.0273786 0.0278276 0.0116812
2117 1 0.435505 0.0870655 0.0801896
11991 1 0.474355 0.0913682 0.0870807
985 1 0.413302 0.165292 0.0632482
971 1 0.475615 0.064295 0.226424
8427 1 0.454661 0.0731784 0.0467302
1182 1 0.380687 0.130273 0.0895735
853 1 0.461559 0.120365 0.109387
4288 1 0.219915 0.0198282 0.224086
8332 1 0.435373 0.492239 0.239787
1520 1 0.178626 0.0306521 0.292009
9549 1 0.440475 0.00569032 0.264677
1705 1 0.175116 0.424948 0.123311
1544 1 0.021234 0.00294602 0.0451002
2204 1 0.010155 0.268239 0.0910193
687 1 0.0684877 0.240627 0.0495657
5307 1 0.252727 0.491709 0.180533
2373 1 0.0600376 0.332977 0.00360554
2036 1 0.0435383 0.268376 0.0639867
752 1 0.0224922 0.274189 0.125423
634 1 0.0397555 0.225269 0.0283978
384 1 0.17073 0.24776 0.0357292
2946 1 0.0339449 0.300955 0.0428147
1145 1 0.353636 0.466482 0.449425
1833 1 0.0858526 0.318689 0.0331847
3918 1 0.0753954 0.280212 0.0300111
243 1 0.307452 0.195971 0.0202885
1063 1 0.0834192 0.199719 0.0792284
3757 1 0.383829 0.0256285 0.0412545
1841 1 0.0192845 0.370558 0.0189041
2852 1 0.154025 0.21314 0.0368493
379 1 0.19817 0.202293 0.0220894
42 1 0.150042 0.229119 0.106929
2724 1 0.124486 0.259931 0.100593
1749 1 0.21164 0.202034 0.0608386
1267 1 0.0582724 0.021984 0.146402
2261 1 0.171846 0.226181 0.0695812
10072 1 0.460845 0.476649 0.206656
1340 1 0.191992 0.280878 0.0299519
2653 1 0.00677814 0.112042 0.0784756
2213 1 0.0942326 0.260237 0.0742096
2041 1 0.155416 0.292162 0.039169
3052 1 0.112667 0.288922 0.0358635
1683 1 0.205938 0.241936 0.0504805
70 1 0.207659 0.15828 0.0387597
11315 1 0.137451 0.253763 0.13667
1060 1 0.265725 0.161328 0.117484
2399 1 0.237255 0.204457 0.0337459
3996 1 0.291276 0.201706 0.075809
1716 1 0.256229 0.256743 0.00972137
1103 1 0.237847 0.235233 0.0812677
959 1 0.271655 0.243159 0.0695341
1306 1 0.24516 0.246246 0.0440919
11189 1 0.273474 0.304843 0.0701715
1991 1 0.213823 0.319561 0.00834518
473 1 0.277954 0.1947 0.0419904
1008 1 0.227667 0.284396 0.0340653
10056 1 0.481133 0.23571 0.20696
3375 1 0.240789 0.0898609 0.0273301
4246 1 0.313497 0.268911 0.019827
1986 1 0.217597 0.0541225 0.212445
106 1 0.212225 0.494131 0.420303
1483 1 0.344823 0.212476 0.0371133
1600 1 0.339537 0.320731 0.0580391
3898 1 0.322732 0.188213 0.0552682
489 1 0.340998 0.270205 0.0790681
60 1 0.38605 0.190993 0.0475641
12075 1 0.378102 0.247732 0.076672
2824 1 0.410838 0.215384 0.0137418
1096 1 0.38226 0.319411 0.104874
2244 1 0.294523 0.228286 0.0379493
9142 1 0.372806 0.298671 0.068047
54 1 0.342363 0.288218 0.0368089
740 1 0.318381 0.226013 0.0746927
11527 1 0.460396 0.219122 0.489685
2988 1 0.431294 0.184313 0.102165
8550 1 0.489147 0.135162 0.0843911
2236 1 0.450316 0.153565 0.0811172
8590 1 0.364231 0.211049 0.0699068
1541 1 0.459228 0.20409 0.0763074
5036 1 0.476227 0.277381 0.0623759
2619 1 0.419796 0.209504 0.0671139
3570 1 0.459963 0.240496 0.0668144
8513 1 0.46126 0.274612 0.00368278
3660 1 0.402725 0.278506 0.05452
1486 1 0.000162195 0.217084 0.471939
8417 1 0.487638 0.213072 0.0522625
12142 1 0.4394 0.223278 0.0370407
10770 1 0.401712 0.36927 0.0406138
1571 1 0.0614782 0.0117271 0.184632
5913 1 0.48997 0.0498537 0.457503
2334 1 0.0672341 0.407665 0.0854219
2491 1 0.0548016 0.328131 0.0664846
1783 1 0.432762 0.0100273 0.407464
4711 1 0.221885 0.00273818 0.431879
5593 1 0.0620657 0.352098 0.0358947
3432 1 0.102047 0.307119 0.0939597
9987 1 0.0272513 0.338149 0.100225
1059 1 0.129398 0.381051 0.12375
1822 1 0.0950843 0.3432 0.0732497
4454 1 0.0578527 0.392525 0.120359
1535 1 0.0560688 0.432781 0.0301844
10526 1 0.0266828 0.305722 0.0804579
3722 1 0.110595 0.424238 0.482874
3659 1 0.0234248 0.339348 0.0414865
11161 1 0.115167 0.465275 0.0556605
5982 1 0.0238232 0.409371 0.0695615
11544 1 0.016999 0.162148 0.39576
9329 1 0.0271283 0.309714 0.133592
1242 1 0.211862 0.223352 0.478077
3366 1 0.0573856 0.391625 0.0341267
3661 1 0.161212 0.274963 0.1016
682 1 0.118664 0.323408 0.0503991
12850 1 0.481655 0.415914 0.227616
4804 1 0.160483 0.352837 0.0861614
3594 1 0.138769 0.361188 0.049743
5724 1 0.139308 0.263344 0.0564225
2880 1 0.160929 0.312401 0.0924818
1189 1 0.248866 0.31745 0.0370239
5672 1 0.161574 0.327891 0.0530178
993 1 0.141199 0.328246 0.0118175
4951 1 0.100433 0.408672 0.113014
1764 1 0.10381 0.405358 0.0218518
738 1 0.115128 0.0113127 0.407421
6092 1 0.166787 0.385285 0.0624388
2504 1 0.0759918 0.298749 0.0641506
357 1 0.126379 0.401644 0.0528173
9172 1 0.468417 0.0794386 0.467881
2357 1 0.19636 0.319977 0.042185
6953 1 0.0430951 0.0151081 0.0772959
10081 1 0.038511 0.32115 0.195959
1523 1 0.232885 0.314069 0.0832955
828 1 0.243255 0.366077 0.0333775
2642 1 0.209589 0.354717 0.0498233
1105 1 0.282893 0.347596 0.0329524
3520 1 0.251313 0.345556 0.0671476
194 1 0.319454 0.354979 0.0554842
2374 1 0.28817 0.385348 0.032374
1843 1 0.214697 0.363387 0.00335767
37 1 0.136445 0.00196395 0.0384636
4193 1 0.17608 0.351595 0.0220844
753 1 0.255735 0.28047 0.106666
1736 1 0.282566 0.305335 0.118901
632 1 0.285517 0.366296 0.0681419
1525 1 0.303988 0.35706 0.100495
990 1 0.224654 0.406834 0.0403551
6270 1 0.299297 0.398982 0.111696
867 1 0.00958992 0.475966 0.399466
3080 1 0.273755 0.281056 0.0356281
13660 1 0.477805 0.420416 0.349055
5403 1 0.316257 0.365157 0.0141457
2356 1 0.348116 0.384692 0.0707085
140 1 0.337964 0.310719 0.0953818
13430 1 0.378335 0.38688 0.00791971
939 1 0.362454 0.351574 0.132172
1086 1 0.31047 0.312818 0.0276373
3032 1 0.346183 0.34942 0.0850503
189 1 0.364977 0.381666 0.102157
1277 1 0.332864 0.428739 0.0575463
3542 1 0.379657 0.340508 0.0290227
3003 1 0.353184 0.370311 0.0288876
12586 1 0.3912 0.494936 0.0110703
3728 1 0.0282138 0.183624 0.0375812
8727 1 0.398392 0.259995 0.0150037
1363 1 0.414082 0.316087 0.0648416
3046 1 0.492348 0.319038 0.0814952
1443 1 0.451328 0.299752 0.0350461
8214 1 0.437678 0.275245 0.0671702
856 1 0.439452 0.36688 0.109899
239 1 0.368537 0.178133 0.498711
389 1 0.454974 0.319106 0.0685668
3693 1 0.0105541 0.263776 0.0267936
1886 1 0.263634 0.164146 0.00476769
1966 1 0.426336 0.339954 0.0355244
11205 1 0.474944 0.348981 0.0664747
9307 1 0.496416 0.322374 0.0189788
13219 1 0.476752 0.0148021 0.346812
3779 1 0.379136 0.294942 0.0236687
111 1 0.435185 0.260287 0.0310036
3741 1 0.192326 0.0481506 0.0370618
6046 1 0.265489 0.460991 0.27604
8617 1 0.034119 0.434095 0.104318
16166 1 0.499105 0.00278381 0.431692
668 1 0.046364 0.437467 0.0691579
743 1 0.0482909 0.475659 0.0917363
1623 1 0.179146 0.0105131 0.0411889
8195 1 0.480545 0.492279 0.241646
5912 1 0.0900189 0.474882 0.0835879
670 1 0.0753291 0.442101 0.09641
12973 1 0.055354 0.456327 0.13024
8883 1 0.383502 0.0386569 0.349623
2353 1 0.0121494 0.436123 0.0414709
2667 1 0.143398 0.389243 0.0108073
701 1 0.0220724 0.260292 0.203633
7279 1 0.0214469 0.474335 0.0587608
5241 1 0.148223 0.406262 0.0890449
5850 1 0.191402 0.00297843 0.00563631
4430 1 0.131273 0.481524 0.0920916
3539 1 0.0719384 0.46625 0.0478695
6723 1 0.116636 0.44685 0.0982081
1566 1 0.128969 0.431031 0.0206349
14050 1 0.489327 0.269302 0.130722
1405 1 0.155302 0.462456 0.0322023
1849 1 0.161278 0.475703 0.0668869
3761 1 0.0939046 0.428737 0.0589073
2451 1 0.188046 0.43386 0.0183013
1447 1 0.141574 0.436319 0.0613601
5640 1 0.115667 0.373868 0.0901176
1862 1 0.00425293 0.360155 0.337289
9042 1 0.355854 0.404634 0.486616
976 1 0.20378 0.477205 0.0672396
3312 1 0.468472 0.468306 0.0276716
1169 1 0.18475 0.42387 0.06271
5684 1 0.188648 0.391799 0.0297984
4118 1 0.215245 0.44686 0.0446777
1214 1 0.301377 0.400194 0.0719551
2545 1 0.152937 0.172955 0.0217741
169 1 0.247988 0.445642 0.0683624
3849 1 0.265803 0.451815 0.0312615
2982 1 0.259945 0.411467 0.0507412
13155 1 0.233014 0.380038 0.0662167
836 1 0.296432 0.426749 0.0452242
1618 1 0.239143 0.483578 0.0478835
714 1 0.329839 0.417472 0.11049
1494 1 0.252969 0.39453 0.129245
6717 1 0.0344056 0.488711 0.42379
11141 1 0.00506269 0.264303 0.247667
1361 1 0.379592 0.457269 0.00891989
5219 1 0.354743 0.482149 0.0618146
8114 1 0.298683 0.444882 0.079584
1304 1 0.326699 0.401002 0.0356931
734 1 0.361094 0.432232 0.120823
2101 1 0.341198 0.453297 0.0956917
3168 1 0.368405 0.403905 0.0430742
8443 1 0.481179 0.398286 0.162295
1054 1 0.347655 0.430671 0.0199315
143 1 0.36698 0.419727 0.080138
1191 1 0.00801282 0.277272 0.394357
4531 1 0.378489 0.460683 0.099458
1464 1 0.375148 0.446002 0.0437848
12388 1 0.0118587 0.467512 0.295855
963 1 0.331438 0.459695 0.0341059
1042 1 0.258298 0.496215 0.288331
13709 1 0.48773 0.00889419 0.470842
9335 1 0.469394 0.391844 0.0631122
8676 1 0.464786 0.341399 0.0285063
9556 1 0.43666 0.4461 0.0977105
1625 1 0.395474 0.419135 0.0140429
1143 1 0.401921 0.394508 0.0855024
9955 1 0.436316 0.363516 0.0698531
6449 1 0.440191 0.398796 0.087274
1988 1 0.426442 0.498144 0.448969
5083 1 0.412624 0.450145 0.0275809
12383 1 0.440451 0.465895 0.0525138
13973 1 0.412998 0.411739 0.0510999
2826 1 0.0179747 0.0224984 0.139665
9730 1 0.461303 0.429382 0.0799288
3545 1 0.0568775 0.137244 0.490567
587 1 0.0503872 0.0297535 0.110407
8763 1 0.0397589 0.0892947 0.14762
11915 1 0.419281 0.181113 0.0259789
3592 1 0.23236 0.437588 0.473354
3001 1 0.0889998 0.0396587 0.127767
9184 1 0.0228561 0.0687275 0.116234
2833 1 0.0648304 0.0657985 0.121659
1711 1 0.0643215 0.0621311 0.222041
1220 1 0.0801257 0.0812922 0.193591
5073 1 0.0274189 0.0528453 0.155656
1210 1 0.0483896 0.0458038 0.186662
223 1 0.0342412 0.137608 0.118491
8532 1 0.0452179 0.0865172 0.0940087
530 1 0.0944343 0.0375288 0.179899
13511 1 0.0198619 0.479757 0.258406
3995 1 0.0602981 0.00838301 0.0313897
2183 1 0.128431 0.0384885 0.462072
3148 1 0.122996 0.0200361 0.142338
2923 1 0.152906 0.103058 0.124544
193 1 0.0896064 0.00465987 0.158907
2154 1 0.133462 0.045645 0.183041
3365 1 0.0723628 0.0611497 0.160614
3786 1 0.161695 0.0350118 0.122838
1234 1 0.144874 0.0719084 0.156105
2493 1 0.127028 0.114161 0.166209
1929 1 0.00701912 0.0333505 0.291211
11594 1 0.0163617 0.285916 0.324661
1591 1 0.109642 0.076068 0.170629
3703 1 0.176244 0.0451251 0.160339
4539 1 0.19924 0.0187271 0.137584
1047 1 0.122518 0.00974115 0.181048
6567 1 0.255927 0.497497 0.470702
2584 1 0.159646 0.0128249 0.19852
1756 1 0.232353 0.105947 0.163395
8845 1 0.466306 0.33637 0.105786
3440 1 0.302266 0.0220966 0.147531
8536 1 0.220041 0.0604038 0.0932616
550 1 0.27407 0.0324634 0.0954525
3103 1 0.312844 0.102477 0.154747
731 1 0.198454 0.00775965 0.173094
552 1 0.196607 0.145067 0.145243
2226 1 0.415912 0.142917 0.495497
5447 1 0.235989 0.0228981 0.103093
1613 1 0.170956 0.100445 0.172323
2479 1 0.195955 0.104749 0.14108
4752 1 0.24612 0.0449536 0.13256
12352 1 0.00376066 0.451756 0.455398
2681 1 0.310453 0.0162778 0.109914
9048 1 0.352757 0.0115587 0.0922788
2582 1 0.0109375 0.0271017 0.0969087
368 1 0.477692 0.121482 0.179199
969 1 0.401949 0.063419 0.0758649
1827 1 0.289293 0.0502019 0.127807
76 1 0.330949 0.0219879 0.175446
215 1 0.257904 0.408249 0.481895
1101 1 0.365969 0.031608 0.188474
335 1 0.340793 0.0537241 0.156976
9998 1 0.340738 0.00785025 0.133134
110 1 0.298383 0.0506738 0.209409
1442 1 0.391292 0.0594986 0.2233
528 1 0.299778 0.059174 0.162484
5693 1 0.26916 0.0346848 0.16911
5429 1 0.396781 0.0109 0.187435
1739 1 0.281966 0.264759 0.478995
392 1 0.38327 0.0682638 0.116198
9862 1 0.371858 0.0265738 0.143442
3979 1 0.177304 0.499634 0.091374
1171 1 0.389077 0.0526635 0.172102
9212 1 0.0110651 0.354092 0.430579
10783 1 0.488203 0.226798 0.138529
14075 1 0.463305 0.0346797 0.161021
681 1 0.459984 0.0472182 0.0828893
791 1 0.395327 0.0263692 0.104098
9252 1 0.424196 0.0436052 0.195637
3503 1 0.422512 0.0598283 0.103933
182 1 0.459742 0.0710798 0.19165
1871 1 0.457452 0.0261073 0.198364
9359 1 0.408981 0.084332 0.199889
4181 1 0.246841 0.0217387 0.37866
59 1 0.0456149 0.175369 0.108843
13092 1 0.474699 0.473461 0.0729328
1397 1 0.0791134 0.19262 0.118605
849 1 0.077968 0.10146 0.154886
890 1 0.031057 0.169037 0.146673
2030 1 0.0665022 0.152488 0.133836
879 1 0.0573737 0.150289 0.174605
290 1 0.0607605 0.197887 0.158738
1565 1 0.0523661 0.106956 0.183232
11 1 0.020798 0.195498 0.0887988
651 1 0.101318 0.253111 0.209934
1855 1 0.00683873 0.154019 0.183511
2955 1 0.12186 0.230885 0.0755736
6351 1 0.244819 0.474957 0.439502
3803 1 0.203432 0.127019 0.0729639
28 1 0.183823 0.120906 0.105491
799 1 0.143155 0.176401 0.0906033
2953 1 0.156659 0.132987 0.145541
4599 1 0.114009 0.128434 0.124965
685 1 0.103201 0.176512 0.145276
3417 1 0.156773 0.120078 0.0724021
437 1 0.235311 0.145522 0.147038
1107 1 0.108819 0.0936216 0.130698
1389 1 0.11583 0.138822 0.209431
1976 1 0.147265 0.137401 0.111392
314 1 0.16393 0.140271 0.179476
1069 1 0.0960452 0.157641 0.106428
803 1 0.114089 0.201609 0.0979705
616 1 0.143964 0.1874 0.147832
1927 1 0.129853 0.159153 0.169611
486 1 0.0818194 0.120694 0.201318
1899 1 0.12768 0.153401 0.261831
219 1 0.213173 0.0681614 0.141754
2253 1 0.250112 0.134664 0.0777559
5216 1 0.249414 0.111218 0.126944
1073 1 0.176394 0.15611 0.0898068
1784 1 0.203717 0.143633 0.183043
305 1 0.300613 0.137738 0.115723
187 1 0.232687 0.183314 0.107056
1223 1 0.270344 0.11931 0.161129
710 1 0.273469 0.158207 0.154068
1835 1 0.205785 0.0891488 0.059199
1824 1 0.234755 0.0980199 0.0940194
1309 1 0.294041 0.192398 0.142285
10162 1 0.327038 0.15813 0.138291
745 1 0.235982 0.182364 0.189407
427 1 0.171043 0.173637 0.121164
1967 1 0.273798 0.177569 0.190556
2001 1 0.355142 0.170747 0.0831425
3720 1 0.392607 0.0954377 0.165115
1088 1 0.33555 0.116398 0.123396
3125 1 0.350083 0.161218 0.180944
8711 1 0.36365 0.0772394 0.199724
989 1 0.310612 0.174709 0.173231
1581 1 0.288804 0.0946102 0.129306
8924 1 0.328146 0.138583 0.0814935
1048 1 0.354026 0.130812 0.157596
516 1 0.384104 0.161836 0.197761
1817 1 0.341303 0.225645 0.136795
1301 1 0.337242 0.122394 0.21116
307 1 0.281278 0.160148 0.0778427
8880 1 0.324916 0.0966749 0.189824
692 1 0.355417 0.089592 0.164584
447 1 0.366345 0.158918 0.131288
3981 1 0.374808 0.115279 0.12668
9353 1 0.453397 0.0796434 0.117767
320 1 0.0801911 0.0128135 0.220234
9337 1 0.410049 0.148671 0.112045
1648 1 0.430451 0.0701415 0.153298
1115 1 0.395637 0.145285 0.155899
8780 1 0.416836 0.111324 0.132903
10191 1 0.477973 0.0987837 0.209823
3931 1 0.439371 0.136296 0.158759
697 1 0.488395 0.19548 0.174237
1652 1 0.421433 0.154731 0.200608
14064 1 0.436735 0.0642961 0.225019
11214 1 0.454099 0.187761 0.0426525
9494 1 0.446778 0.101355 0.174082
1142 1 0.489676 0.154064 0.203444
8489 1 0.471309 0.116292 0.142127
10022 1 0.456064 0.164386 0.12729
1455 1 0.109665 0.248682 0.0393671
1296 1 0.232617 0.00762585 0.154272
3484 1 0.283764 0.0880999 0.0381198
177 1 0.11555 0.238564 0.171014
1978 1 0.0373232 0.211389 0.131876
159 1 0.0387487 0.176097 0.199707
775 1 0.078842 0.226453 0.18618
301 1 0.0634131 0.284986 0.14549
8201 1 0.0881477 0.230138 0.106025
8254 1 0.00965953 0.236838 0.115298
782 1 0.14486 0.259384 0.196077
3014 1 0.0931875 0.274833 0.168158
11664 1 0.0557107 0.304185 0.109477
411 1 0.0629297 0.258374 0.212097
1819 1 0.0579943 0.254254 0.174848
14091 1 0.488613 0.050683 0.41629
9775 1 0.409326 0.00273412 0.367808
2135 1 0.089231 0.221068 0.142736
1983 1 0.174433 0.185611 0.0580609
2331 1 0.12537 0.216613 0.140534
3076 1 0.206502 0.214855 0.165535
1984 1 0.193373 0.197087 0.102899
53 1 0.179665 0.262367 0.198848
600 1 0.219977 0.252018 0.171999
1934 1 0.173227 0.171126 0.161994
1181 1 0.218085 0.136512 0.116241
1635 1 0.196691 0.23186 0.0993067
131 1 0.0672004 0.269193 0.101975
822 1 0.102725 0.255049 0.133591
848 1 0.229381 0.228202 0.12448
343 1 0.198058 0.293369 0.111233
1426 1 0.211746 0.290911 0.147913
3436 1 0.218699 0.26275 0.0988753
3296 1 0.179579 0.283427 0.067796
1510 1 0.245164 0.275959 0.0672208
1946 1 0.192052 0.261755 0.132508
1891 1 0.278644 0.273272 0.13672
418 1 0.264209 0.201037 0.119337
312 1 0.203142 0.185371 0.142412
1776 1 0.265217 0.210708 0.159903
1378 1 0.318788 0.22157 0.170256
116 1 0.26416 0.207402 0.207451
730 1 0.317262 0.266189 0.120885
562 1 0.298895 0.232391 0.139638
1920 1 0.233307 0.220291 0.192918
3039 1 0.265183 0.247922 0.165204
3881 1 0.252072 0.257556 0.203128
258 1 0.345774 0.235183 0.101757
409 1 0.350228 0.192031 0.11211
725 1 0.379047 0.183644 0.164685
3713 1 0.290227 0.273445 0.0905193
669 1 0.31932 0.171094 0.104245
2318 1 0.265812 0.239435 0.117153
1482 1 0.351981 0.241727 0.174492
461 1 0.360688 0.271849 0.146962
8261 1 0.310353 0.260217 0.161799
1359 1 0.415792 0.259571 0.150052
1627 1 0.425314 0.3003 0.157119
1079 1 0.389746 0.284114 0.168689
1016 1 0.393587 0.182853 0.129337
8785 1 0.338495 0.196616 0.195575
1241 1 0.314299 0.212596 0.109216
5412 1 0.303077 0.287665 0.0574131
2769 1 0.365522 0.282044 0.107681
838 1 0.344524 0.19212 0.154992
9750 1 0.278162 0.292911 0.169855
951 1 0.413758 0.280931 0.198964
1279 1 0.417312 0.246585 0.0799938
10020 1 0.437121 0.223268 0.110112
8779 1 0.466668 0.247119 0.107758
3467 1 0.380407 0.22607 0.148537
13556 1 0.487251 0.497489 0.0433815
1968 1 0.42639 0.17225 0.150628
396 1 0.385666 0.250165 0.117267
8842 1 0.450657 0.235335 0.154202
4320 1 0.105028 0.495539 0.148188
1493 1 0.42242 0.210184 0.145446
657 1 0.484437 0.298267 0.161202
8173 1 0.421826 0.358363 0.462587
270 1 0.387227 0.216079 0.103413
1587 1 0.47873 0.265964 0.187257
3655 1 0.46744 0.202796 0.113261
1398 1 0.18136 0.00204981 0.447698
922 1 0.456926 0.197418 0.15001
6892 1 0.427241 0.496878 0.495814
9186 1 0.102026 0.348858 0.114754
493 1 0.0850859 0.38569 0.0600678
8735 1 0.113845 0.310503 0.186727
9796 1 0.0772461 0.321781 0.141864
2146 1 0.135913 0.275907 0.164933
2796 1 0.121663 0.287301 0.2209
1316 1 0.101446 0.381973 0.147879
434 1 0.0877749 0.373073 0.182648
1953 1 0.0620627 0.354294 0.0959203
1009 1 0.0780749 0.329944 0.181894
508 1 0.0622709 0.365055 0.149708
352 1 0.0655399 0.290265 0.193354
1487 1 0.0356547 0.414218 0.13998
201 1 0.281118 0.0162017 0.308697
5269 1 0.128605 0.337701 0.216319
932 1 0.0251551 0.367242 0.135505
14319 1 0.0189199 0.387865 0.170947
9273 1 0.0272236 0.292264 0.179287
14307 1 0.128452 0.474823 0.307363
75 1 0.143697 0.344937 0.12102
1916 1 0.221358 0.353022 0.0974827
1343 1 0.149036 0.318147 0.163971
975 1 0.145798 0.305071 0.123983
1887 1 0.225327 0.334072 0.171921
497 1 0.10599 0.29143 0.126161
9898 1 0.190341 0.331152 0.159784
4281 1 0.173167 0.291587 0.149392
2210 1 0.160886 0.345753 0.188938
3294 1 0.193819 0.33196 0.0800387
372 1 0.176891 0.397054 0.150897
1840 1 0.127701 0.33702 0.0905066
1800 1 0.159482 0.359601 0.152636
4342 1 0.181805 0.328807 0.122016
5359 1 0.135246 0.388373 0.164232
4763 1 0.197068 0.399272 0.0925353
624 1 0.126875 0.364649 0.190742
1401 1 0.173402 0.341178 0.225969
1628 1 0.16825 0.252466 0.161908
46 1 0.235504 0.265326 0.136006
870 1 0.220074 0.323095 0.127673
1921 1 0.197725 0.365905 0.137706
1994 1 0.243669 0.359504 0.138652
720 1 0.32333 0.294068 0.146928
221 1 0.302629 0.32601 0.077023
421 1 0.211667 0.36857 0.177081
1023 1 0.242005 0.285709 0.171236
5477 1 0.236466 0.341967 0.217161
1779 1 0.242323 0.387982 0.166114
931 1 0.254843 0.336266 0.108854
349 1 0.217326 0.419616 0.178418
346 1 0.255107 0.375215 0.0963662
1760 1 0.235146 0.385239 0.209157
1246 1 0.251605 0.300959 0.138911
353 1 0.390567 0.348849 0.0696769
1388 1 0.359922 0.312287 0.134415
4252 1 0.302157 0.381447 0.206539
8390 1 0.398871 0.28715 0.130711
31 1 0.272068 0.368491 0.182516
1406 1 0.341313 0.378528 0.164231
253 1 0.353575 0.296343 0.177334
412 1 0.333241 0.378417 0.12702
663 1 0.308576 0.312902 0.178927
86 1 0.312734 0.297175 0.21491
1495 1 0.453196 0.275036 0.144754
800 1 0.322876 0.332138 0.126855
4336 1 0.282468 0.332282 0.148227
4892 1 0.387542 0.355625 0.201223
2109 1 0.315756 0.353046 0.175053
1303 1 0.352902 0.3362 0.166935
1598 1 0.403087 0.281133 0.092805
950 1 0.407691 0.390518 0.122184
554 1 0.479684 0.392345 0.11857
8783 1 0.48282 0.310673 0.198792
965 1 0.413734 0.336534 0.142326
8598 1 0.4262 0.311401 0.109679
9058 1 0.433154 0.369183 0.183083
9853 1 0.455077 0.321009 0.139534
196 1 0.431694 0.269691 0.116045
9067 1 0.464288 0.286643 0.101312
8259 1 0.382935 0.365609 0.161301
3328 1 0.352469 0.490525 0.0235087
10152 1 0.449057 0.363555 0.144233
938 1 0.427176 0.331866 0.211798
5729 1 0.394957 0.322933 0.178333
4946 1 0.369119 0.399807 0.141109
2590 1 0.163886 0.104802 0.0184217
1693 1 0.307844 0.0619832 0.00467316
3812 1 0.0284399 0.0845412 0.0610226
14020 1 0.404637 0.455329 0.0723435
272 1 0.0138092 0.427731 0.17355
1624 1 0.030279 0.48249 0.153699
1834 1 0.05379 0.443163 0.167444
438 1 0.137796 0.426231 0.122455
888 1 0.0645307 0.406641 0.184481
360 1 0.109569 0.00563992 0.349112
1281 1 0.217947 0.258332 0.474711
1656 1 0.0183178 0.424953 0.311906
9885 1 0.0064292 0.450415 0.371628
5877 1 0.07299 0.419107 0.144056
198 1 0.0380706 0.431166 0.204077
3133 1 0.114836 0.362836 0.0194366
5714 1 0.279012 0.472195 0.0590922
7066 1 0.0930874 0.458231 0.128584
11964 1 0.365161 0.0801772 0.475364
5175 1 0.163803 0.475733 0.473611
4922 1 0.175245 0.385817 0.187618
5462 1 0.0733814 0.477608 0.156802
1513 1 0.109547 0.409337 0.184589
1381 1 0.0407166 0.287203 0.494703
7098 1 0.170784 0.3808 0.112856
4691 1 0.13076 0.462332 0.142417
757 1 0.11794 0.347928 0.156252
1823 1 0.0783178 0.490501 0.11752
348 1 0.21623 0.400425 0.141443
14 1 0.186838 0.442899 0.183394
95 1 0.112849 0.418556 0.148837
2743 1 0.473878 0.199666 0.37748
4067 1 0.16285 0.476529 0.117293
4178 1 0.152452 0.487582 0.162664
24 1 0.385199 0.366382 0.484301
1728 1 0.26366 0.413897 0.0911662
206 1 0.18504 0.448503 0.0940822
3878 1 0.24378 0.428922 0.142858
5722 1 0.243174 0.480351 0.0963447
425 1 0.28559 0.371495 0.137692
443 1 0.298617 0.40784 0.248737
5173 1 0.266788 0.459 0.153827
1172 1 0.225876 0.456416 0.17238
5157 1 0.202494 0.433604 0.147
5432 1 0.178426 0.483955 0.19076
5719 1 0.26437 0.448742 0.114336
9442 1 0.0232421 0.380901 0.09666
369 1 0.218296 0.445999 0.113805
1653 1 0.23694 0.479167 0.139574
1723 1 0.360202 0.492959 0.360414
1940 1 0.336381 0.466516 0.129792
3169 1 0.325635 0.414955 0.146418
1549 1 0.307816 0.391742 0.1688
390 1 0.262402 0.409436 0.213307
107 1 0.282092 0.418013 0.159245
1747 1 0.301896 0.444978 0.118051
4132 1 0.369788 0.482884 0.132703
695 1 0.339115 0.40366 0.213615
679 1 0.367495 0.402857 0.181278
1989 1 0.340828 0.427719 0.181596
4748 1 0.338246 0.367182 0.201999
1962 1 0.401613 0.424753 0.107326
5368 1 0.365409 0.450552 0.155581
10185 1 0.406326 0.430755 0.143974
2557 1 0.226048 0.177324 0.00438893
3190 1 0.471616 0.450334 0.371379
5502 1 0.302559 0.425226 0.192247
2280 1 0.285919 0.430871 0.461622
14009 1 0.442697 0.333867 0.177418
2526 1 0.406315 0.349198 0.106124
1461 1 0.414628 0.469374 0.21518
1252 1 0.410633 0.393415 0.162405
345 1 0.438123 0.450955 0.141144
3161 1 0.156496 0.155843 0.498183
454 1 0.405935 0.438792 0.188734
1850 1 0.445306 0.399392 0.134551
8836 1 0.450582 0.434767 0.205124
5421 1 0.160027 0.467216 0.251181
1573 1 0.472961 0.364366 0.176602
4582 1 0.43879 0.421727 0.169547
4467 1 0.468281 0.432472 0.119447
4317 1 0.12578 0.492429 0.27208
986 1 0.0430016 0.224328 0.197517
4916 1 0.0613028 0.0183682 0.260029
9482 1 0.490238 0.370977 0.470637
5131 1 0.400414 0.474835 0.166016
1777 1 0.0932954 0.0435126 0.244546
756 1 0.0801026 0.099013 0.234159
1092 1 0.00320926 0.0403822 0.247396
1213 1 0.0268591 0.0643214 0.285421
1374 1 0.0431675 0.0586292 0.253929
1300 1 0.0636037 0.0941488 0.298487
3265 1 0.0987855 0.00577601 0.301892
1294 1 0.0851933 0.0737258 0.273309
7193 1 0.460214 0.00748647 0.00622934
10150 1 0.107038 0.0103751 0.263715
3846 1 0.0388623 0.00601041 0.424793
1499 1 0.443631 0.282974 0.477615
1228 1 0.0540182 0.0310776 0.30414
913 1 0.487059 0.437925 0.0462778
1813 1 0.187332 0.0439805 0.232894
704 1 0.138586 0.0861843 0.191239
5588 1 0.0176072 0.0170577 0.327664
5243 1 0.169653 0.0709733 0.205736
256 1 0.147558 0.0401535 0.223081
104 1 0.123745 0.0427791 0.278387
1341 1 0.154891 0.0428968 0.261209
9 1 0.146844 0.0949028 0.271798
13302 1 0.428498 0.476283 0.00692542
3988 1 0.368425 0.0288046 0.00544195
1239 1 0.211207 0.0372328 0.31617
1538 1 0.155469 0.0771507 0.240527
10126 1 0.450967 0.415008 0.0222537
262 1 0.118284 0.0723174 0.25283
1231 1 0.184746 0.0675952 0.274502
1943 1 0.0876403 0.0398665 0.290129
1278 1 0.118599 0.0772462 0.298713
5472 1 0.252916 0.02096 0.260862
1280 1 0.262382 0.0774978 0.152234
992 1 0.238466 0.0847929 0.20431
227 1 0.218823 0.0892797 0.265171
1603 1 0.278401 0.0910744 0.29764
1011 1 0.269412 0.0562292 0.280636
1186 1 0.26124 0.0498469 0.206504