ITEM: TIMESTEP
50000
ITEM: NUMBER OF ATOMS
16384
ITEM: BOX BOUNDS pp pp pp
0.0000000000000000e+00 8.0764399999999995e+01
0.0000000000000000e+00 8.0764399999999995e+01
0.0000000000000000e+00 8.0764399999999995e+01
ITEM: ATOMS id type xs ys zs
11262 1 0.0435627 0.0467674 0.0569231
10680 1 0.0146755 0.0372879 0.0889887
5472 1 0.0235205 0.0714564 0.0230726
9132 1 0.0333274 0.0191307 0.0289706
1901 1 0.0657755 0.0717533 0.0402202
5194 1 0.0490527 0.0770719 0.0807742
7934 1 0.0432627 0.0989934 0.0480075
1397 1 0.00187766 0.0706222 0.0612633
10157 1 0.0890917 0.0898578 0.0730914
5585 1 0.049922 0.00706825 0.0738629
10326 1 0.0704002 0.0121257 0.0132357
2919 1 0.0943227 0.0446908 0.0334945
12706 1 0.0886837 0.0392585 0.0731134
3035 1 0.0500061 0.0472491 0.00653798
4328 1 0.086698 0.00119253 0.0478336
1917 1 0.0148316 0.00331819 0.063259
10287 1 0.105588 0.0828656 0.0380264
6953 1 0.117823 0.0643918 0.0708538
1463 1 0.140052 0.0338865 0.0211054
16096 1 0.123867 0.01212 0.0924455
10812 1 0.167573 0.0616572 0.0544177
15755 1 0.188371 0.0313861 0.0145899
2183 1 0.192984 0.0594892 0.0866644
7457 1 0.149549 0.0883079 0.0899577
10402 1 0.140735 0.0941136 0.0402735
821 1 0.196907 0.0695142 0.0283779
15345 1 0.125702 0.0266882 0.0577412
9515 1 0.164624 0.0672587 0.0110343
6103 1 0.165538 0.0316817 0.080134
4162 1 0.241653 0.073102 0.0259943
308 1 0.242543 0.0277017 0.0300903
7264 1 0.241407 0.0360581 0.0826738
11004 1 0.264627 0.00158584 0.0954393
11926 1 0.274297 0.0500362 0.0892785
1819 1 0.221199 0.0779771 0.0594701
1188 1 0.289977 0.0197199 0.0548759
152 1 0.241293 0.00438496 0.0576462
1326 1 0.279131 0.0593287 0.0142484
1013 1 0.266179 0.0909955 0.068704
2453 1 0.26415 0.0549366 0.051868
13252 1 0.208839 0.0422902 0.0513763
990 1 0.292106 0.0965289 0.0384488
5279 1 0.299697 0.0772766 0.0734178
13070 1 0.202568 0.0041666 0.0818612
10631 1 0.204909 0.00371273 0.0373788
10678 1 0.223715 0.097879 0.00431724
10192 1 0.223026 0.0475181 0.000999708
6314 1 0.324351 0.00296827 0.0542953
5414 1 0.337551 0.0320947 0.0299089
2809 1 0.308963 0.0561489 0.0444858
2096 1 0.379877 0.0169203 0.046634
3301 1 0.336823 0.0891338 0.0261249
209 1 0.337871 0.0362979 0.0688767
1562 1 0.379442 0.0766728 0.0668303
1444 1 0.359789 0.056944 0.0425562
12138 1 0.335858 0.0833573 0.069641
5467 1 0.390139 0.0839599 0.0299253
9275 1 0.355233 0.0932353 0.0978758
8625 1 0.382216 0.034195 0.0835105
6896 1 0.357197 0.00385333 0.0765929
3383 1 0.308336 0.0115997 0.0198621
258 1 0.368288 0.0664406 0.00325664
1200 1 0.407072 0.0479503 0.0212113
1829 1 0.477787 0.00891708 0.0531689
5779 1 0.42324 0.0455917 0.0947189
484 1 0.459331 0.037553 0.0788402
62 1 0.433462 0.0741988 0.0404893
8171 1 0.427202 0.0820971 0.0847216
9426 1 0.459169 0.0150913 0.00565463
3958 1 0.441944 0.0330655 0.0348495
1667 1 0.409778 0.0426217 0.0580347
5259 1 0.499958 0.0928511 0.0771037
8309 1 0.462014 0.0880543 0.0636932
1346 1 0.474734 0.0669366 0.0213744
462 1 0.415694 0.00920397 0.0264961
6578 1 0.436189 0.00766322 0.0649551
5647 1 0.062812 0.121558 0.0742428
8413 1 0.0276921 0.133482 0.0486001
10378 1 0.0489041 0.122939 0.0187238
11923 1 0.038254 0.153807 0.0849929
10551 1 0.0152172 0.171409 0.0473468
3055 1 0.0872122 0.11638 0.037401
9308 1 0.0608808 0.150616 0.0446082
14068 1 0.0456645 0.198766 0.0564864
9170 1 0.0887612 0.19333 0.0638281
12095 1 0.0755353 0.157698 0.0809879
9748 1 0.0879719 0.152735 0.00828684
9831 1 0.0246363 0.154762 0.0126604
621 1 0.0172454 0.103724 0.0792572
11892 1 0.0571387 0.182799 0.0120883
14076 1 0.00124041 0.104479 0.0350524
11324 1 0.105727 0.133959 0.0896535
1580 1 0.127205 0.126197 0.0599284
9043 1 0.134704 0.16671 0.0535538
4427 1 0.183397 0.106136 0.0752198
10448 1 0.10052 0.154465 0.0474321
9966 1 0.176297 0.151501 0.0759671
11643 1 0.162144 0.132615 0.042242
10166 1 0.138326 0.171206 0.0156667
10371 1 0.12275 0.129983 0.0199655
8294 1 0.111911 0.171764 0.0959741
11383 1 0.149613 0.12579 0.0990976
9797 1 0.180386 0.102808 0.00302579
2379 1 0.173558 0.175871 0.00357657
3014 1 0.178913 0.169886 0.0408726
2909 1 0.165028 0.137418 0.00178422
1976 1 0.20629 0.19218 0.0554176
8838 1 0.220984 0.139066 0.0577037
5402 1 0.241186 0.179501 0.0378779
10569 1 0.275003 0.1723 0.0650032
907 1 0.208294 0.149619 0.0204691
1757 1 0.25128 0.107008 0.0378115
231 1 0.24158 0.193913 0.086225
2179 1 0.202297 0.108513 0.0398421
629 1 0.280026 0.136959 0.0377396
4247 1 0.276668 0.170791 0.0231061
886 1 0.218379 0.120483 0.0941679
564 1 0.295901 0.119126 0.0676927
4723 1 0.251518 0.153737 0.0971947
9464 1 0.280605 0.198806 0.0958996
351 1 0.21002 0.192947 0.00709466
5313 1 0.244973 0.144035 0.0172276
9090 1 0.313477 0.170997 0.0346294
2874 1 0.311292 0.161167 0.0743002
12642 1 0.359435 0.108742 0.0567842
3054 1 0.303459 0.127058 0.0115939
4212 1 0.382879 0.183983 0.0522002
4641 1 0.324422 0.135833 0.0431695
1267 1 0.398002 0.114096 0.0500942
681 1 0.367358 0.147859 0.0562186
5694 1 0.353219 0.175478 0.0208319
1788 1 0.379355 0.12485 0.0137331
3141 1 0.341901 0.129809 0.0800154
6831 1 0.387377 0.126476 0.0868128
3650 1 0.395214 0.164576 0.0212294
10046 1 0.344265 0.187549 0.0561352
8909 1 0.383806 0.169524 0.0876507
11078 1 0.345689 0.165723 0.0921772
1109 1 0.389756 0.199229 0.010714
12019 1 0.436391 0.119738 0.0545332
8078 1 0.42001 0.108661 0.0163064
6640 1 0.406878 0.155614 0.0592556
2301 1 0.492591 0.149605 0.0222117
10501 1 0.409438 0.197094 0.0776229
1432 1 0.468324 0.148971 0.0656489
4314 1 0.423873 0.187048 0.0444403
2492 1 0.466718 0.197988 0.0592271
7857 1 0.440353 0.150509 0.0288434
9960 1 0.464909 0.184712 0.0178143
3148 1 0.428705 0.133289 0.08992
9377 1 0.428666 0.180719 0.00766068
3344 1 0.459846 0.118962 0.016573
5592 1 0.497693 0.185704 0.0964556
8336 1 0.438844 0.169414 0.0788383
2678 1 0.499292 0.173214 0.0534812
1395 1 0.469502 0.120899 0.0880747
7389 1 0.495167 0.109099 0.00398812
15989 1 0.483933 0.11458 0.0460861
11904 1 0.0968308 0.214593 0.00680232
3952 1 0.0691698 0.226049 0.0327598
15347 1 0.0493395 0.284419 0.0920166
9868 1 0.0265644 0.23458 0.0578352
11920 1 0.0277555 0.216651 0.021164
14448 1 0.0311715 0.208319 0.0925428
14842 1 0.0682016 0.237456 0.080782
8978 1 0.0464049 0.255826 0.0122604
2123 1 0.0523456 0.262466 0.0568342
11851 1 0.085317 0.26056 0.0385291
6231 1 0.0908145 0.299198 0.0563744
9816 1 0.0717765 0.293779 0.0245156
3491 1 0.0136089 0.266813 0.0962743
11504 1 0.0247333 0.296157 0.0619958
11485 1 0.0353972 0.296742 0.0257731
8896 1 0.0135906 0.266784 0.0378111
10502 1 0.0827392 0.252092 3.43203e-05
6846 1 0.104978 0.289106 0.0065349
3638 1 0.120793 0.207563 0.0382712
2990 1 0.162975 0.205355 0.066514
15745 1 0.117805 0.242084 0.0578627
11922 1 0.101002 0.267708 0.0826046
8221 1 0.118916 0.247362 0.0167257
3167 1 0.178135 0.206454 0.0276747
401 1 0.156645 0.240268 0.0470122
11847 1 0.168511 0.245664 0.00914433
8327 1 0.177816 0.243229 0.0813803
9223 1 0.135541 0.246668 0.0899471
935 1 0.123846 0.205968 0.0758971
8480 1 0.182297 0.279003 0.0513029
10437 1 0.163214 0.276434 0.0947752
13543 1 0.194742 0.240925 0.0469576
12140 1 0.138443 0.273432 0.0396817
11893 1 0.127672 0.292768 0.0702521
12084 1 0.140523 0.213316 0.00142271
8765 1 0.160011 0.282254 0.00787966
12056 1 0.201679 0.284049 0.0191336
958 1 0.292043 0.232796 0.0793154
812 1 0.22968 0.21773 0.0417722
8496 1 0.205082 0.216725 0.0908448
1106 1 0.259535 0.205393 0.012813
3900 1 0.200742 0.279873 0.0843691
9483 1 0.235171 0.253036 0.0238147
310 1 0.291109 0.202554 0.0464987
3420 1 0.260343 0.274799 0.0515999
1638 1 0.266175 0.234134 0.0421725
3022 1 0.275755 0.256277 0.0101966
1573 1 0.281367 0.298473 0.0218165
10043 1 0.244517 0.293949 0.083621
10268 1 0.245235 0.289092 0.0131025
10125 1 0.223551 0.280577 0.0477646
9627 1 0.224433 0.248751 0.0699052
9022 1 0.271816 0.267747 0.0897065
758 1 0.387157 0.244268 0.00824057
3791 1 0.371734 0.215877 0.0747065
15603 1 0.30103 0.275954 0.0653835
14095 1 0.339393 0.235552 0.0671007
2705 1 0.302651 0.241907 0.0432536
920 1 0.336679 0.261918 0.04226
11894 1 0.390359 0.261066 0.0469687
1927 1 0.316329 0.208655 0.0198544
3974 1 0.362053 0.283184 0.0627602
4546 1 0.325206 0.264949 0.0928859
6584 1 0.369528 0.266183 0.093142
11710 1 0.363007 0.275983 0.0149301
360 1 0.35583 0.222717 0.0324591
1533 1 0.321592 0.20226 0.081735
16 1 0.308705 0.280382 0.00465484
8536 1 0.324823 0.241333 0.00585643
3980 1 0.404295 0.22447 0.0401077
3179 1 0.436666 0.225208 0.0599831
10020 1 0.402696 0.242293 0.0748506
2772 1 0.441482 0.21801 0.0232333
379 1 0.465509 0.281382 0.0199167
1227 1 0.411722 0.289094 0.0618406
3145 1 0.464583 0.252569 0.0467027
1338 1 0.442089 0.271697 0.0776204
64 1 0.483767 0.220763 0.0297186
2129 1 0.429886 0.259463 0.0373767
4597 1 0.441346 0.206739 0.0979884
8890 1 0.470908 0.230704 0.0797621
861 1 0.4692 0.245834 0.00633948
3392 1 0.484322 0.270219 0.0920456
3316 1 0.477248 0.289999 0.0589421
6913 1 0.0986118 0.368783 0.012539
7464 1 0.00712737 0.338746 0.0407568
9405 1 0.0358697 0.355468 0.0759228
9231 1 0.0842229 0.357731 0.0495541
1246 1 0.0741086 0.392896 0.0695159
15112 1 0.0824404 0.324279 0.00253338
11901 1 0.0606201 0.32945 0.0390649
9717 1 0.0479801 0.374341 0.041375
2330 1 0.0309742 0.394253 0.0774352
14246 1 0.0695763 0.355009 0.0980219
9881 1 0.0562826 0.318496 0.0753131
9972 1 0.0280931 0.382795 0.00709332
13278 1 0.0456212 0.347349 0.00117336
16361 1 0.0103181 0.390474 0.0463107
10494 1 0.0180578 0.320882 0.00241699
11679 1 0.13201 0.309894 0.0252319
9416 1 0.163881 0.309033 0.0729858
27 1 0.170526 0.31356 0.0343242
3725 1 0.19313 0.320506 0.0955357
9755 1 0.117884 0.380937 0.0478916
12045 1 0.107938 0.362908 0.0888654
3509 1 0.196157 0.377435 0.0543701
1627 1 0.142627 0.351678 0.0397836
10432 1 0.131014 0.332763 0.0827682
13791 1 0.174522 0.346735 0.0623205
4972 1 0.189212 0.349187 0.0257694
8898 1 0.158204 0.388 0.0620957
13462 1 0.110374 0.332346 0.0502594
9809 1 0.131482 0.390812 0.0976553
634 1 0.161615 0.353384 0.0986733
3233 1 0.141491 0.375866 0.0111271
1136 1 0.160126 0.332781 0.000408834
1696 1 0.249886 0.317852 0.0471913
9543 1 0.215256 0.345613 0.0699346
3063 1 0.210401 0.319207 0.0408597
10773 1 0.247221 0.333704 0.09333
897 1 0.202154 0.391489 0.0205531
1340 1 0.283652 0.348971 0.0527327
14563 1 0.26678 0.38887 0.0649647
12021 1 0.251261 0.39045 0.0255162
3231 1 0.288266 0.385643 0.0319985
1832 1 0.284423 0.315392 0.0791674
3942 1 0.226801 0.388554 0.0799667
7455 1 0.271191 0.339809 0.0182832
1403 1 0.227173 0.363804 0.0373815
14965 1 0.230243 0.326443 0.00343677
3462 1 0.355618 0.353422 0.0119905
813 1 0.399938 0.324886 0.054636
3380 1 0.307318 0.390802 0.0671038
15479 1 0.357261 0.324161 0.0408484
1857 1 0.388264 0.359134 0.0334153
210 1 0.321823 0.343389 0.0627513
1881 1 0.385527 0.303496 0.0884784
983 1 0.326184 0.302014 0.0807859
8964 1 0.346199 0.377755 0.063976
748 1 0.371398 0.350023 0.0711205
272 1 0.373111 0.392964 0.0265715
1749 1 0.308544 0.347432 0.0253224
7027 1 0.32411 0.310292 0.0350571
1513 1 0.38034 0.397547 0.069135
5544 1 0.332129 0.380679 0.0255963
493 1 0.388417 0.303587 0.0268431
856 1 0.464148 0.32656 0.0293084
2485 1 0.454987 0.362968 0.00473504
8720 1 0.414891 0.365524 0.0802926
3131 1 0.444862 0.315465 0.0774122
536 1 0.490833 0.310784 0.0959819
352 1 0.426602 0.303979 0.0241584
793 1 0.435445 0.349776 0.0437566
9310 1 0.492352 0.394782 0.0532907
9610 1 0.457689 0.379748 0.067623
1508 1 0.41342 0.393111 0.0459321
7121 1 0.482013 0.363842 0.036768
1642 1 0.422209 0.385429 0.0074897
3863 1 0.418142 0.339047 0.0107251
12643 1 0.450016 0.396449 0.031559
2321 1 0.491035 0.378573 0.0943085
2752 1 0.484413 0.396563 0.00767965
211 1 0.481351 0.34426 0.069897
450 1 0.0386118 0.422953 0.0356124
2565 1 0.0350786 0.440156 0.0723378
16261 1 0.0749907 0.43397 0.0708212
8682 1 0.0034488 0.455908 0.00332663
12010 1 0.0653937 0.407019 0.0114076
15079 1 0.0579326 0.47321 0.0591195
10729 1 0.00996063 0.464291 0.0565926
16038 1 0.0360111 0.458582 0.0288612
6707 1 0.0975777 0.465043 0.0540861
11174 1 0.0041639 0.420208 0.0964419
8862 1 0.073304 0.450499 0.023038
13836 1 0.051088 0.466395 0.0980164
1887 1 0.010899 0.418251 0.00555127
7129 1 0.0751871 0.487259 0.0273086
14941 1 0.0891384 0.481271 0.0880259
10503 1 0.137379 0.436464 0.01016
2632 1 0.186831 0.417338 0.0545198
11162 1 0.102229 0.43156 0.0358182
7066 1 0.106467 0.412182 0.0724519
2167 1 0.112767 0.404368 0.0143117
9947 1 0.174997 0.454163 0.0655471
9613 1 0.187343 0.44718 0.0281061
12325 1 0.151859 0.480114 0.0840274
3930 1 0.162127 0.409706 0.0193107
3899 1 0.138812 0.423245 0.0487135
4762 1 0.119964 0.450995 0.0802235
2861 1 0.187464 0.484228 0.0431055
777 1 0.139656 0.463785 0.0474417
15453 1 0.158561 0.477452 0.0164796
12780 1 0.155605 0.423779 0.0852396
3968 1 0.193028 0.490058 0.0803491
5273 1 0.111244 0.468995 0.0156053
15497 1 0.123732 0.496669 0.0658823
7762 1 0.268574 0.458635 0.023333
7383 1 0.277239 0.419211 0.0130634
6723 1 0.229195 0.465676 0.0210883
9020 1 0.248703 0.424523 0.0822018
2763 1 0.23 0.411874 0.0486762
5348 1 0.213057 0.452879 0.0549562
1436 1 0.284676 0.411964 0.0893794
12542 1 0.205271 0.427562 0.0878758
7093 1 0.272466 0.427107 0.0514663
4890 1 0.28393 0.455119 0.0778017
16318 1 0.226518 0.493426 0.0593244
4136 1 0.217969 0.463665 0.092904
206 1 0.248586 0.461331 0.0652597
7972 1 0.260385 0.495503 0.0308793
9804 1 0.222583 0.43008 0.0107101
6801 1 0.299573 0.484286 0.0271084
2867 1 0.349936 0.497244 0.0937641
2222 1 0.38419 0.439157 0.0590002
2602 1 0.322729 0.42477 0.0787973
2037 1 0.311286 0.453398 0.0541095
3211 1 0.388591 0.446438 0.0179329
7608 1 0.311147 0.415973 0.0365111
5627 1 0.349629 0.455046 0.061114
2517 1 0.35165 0.436368 0.0995603
12015 1 0.351297 0.417513 0.0516754
4170 1 0.340676 0.451775 0.0210854
2244 1 0.353813 0.416942 0.00628726
1249 1 0.377096 0.466764 0.0880437
4281 1 0.301471 0.488396 0.0709
6604 1 0.301904 0.446769 0.00544165
12336 1 0.338688 0.492099 0.0420713
7191 1 0.341779 0.499455 0.00452347
7240 1 0.321292 0.461638 0.0921418
6105 1 0.372376 0.480991 0.0175079
5249 1 0.371828 0.499135 0.0590934
7964 1 0.469595 0.467114 0.0359612
12893 1 0.451804 0.492476 0.0102291
6389 1 0.408204 0.498672 0.00873292
5074 1 0.42203 0.428786 0.0353641
3092 1 0.471458 0.432738 0.0562183
4048 1 0.405413 0.481361 0.0469477
1384 1 0.459512 0.44023 0.0948935
4931 1 0.441412 0.413856 0.071572
6600 1 0.417691 0.436432 0.0923795
684 1 0.442367 0.496956 0.0515263
1045 1 0.434522 0.452239 0.0608273
8633 1 0.449894 0.479915 0.0869302
4317 1 0.409548 0.486226 0.0893187
2229 1 0.42613 0.461998 0.0159202
6000 1 0.420841 0.40052 0.0998631
3300 1 0.457739 0.433716 0.0197679
6652 1 0.498866 0.46396 0.00696047
2470 1 0.497922 0.428744 0.0261104
12359 1 0.0654017 0.014279 0.194968
530 1 0.0670635 0.0854761 0.128166
638 1 0.0217011 0.0702452 0.115145
4151 1 0.032409 0.001313 0.183397
8337 1 0.0937469 0.0535678 0.178283
10101 1 0.0835037 0.0883923 0.165655
9146 1 0.0560076 0.0587342 0.176354
2836 1 0.0553539 0.0362996 0.10109
13671 1 0.0275133 0.0226818 0.122318
4480 1 0.0231821 0.034151 0.167558
4550 1 0.0605165 0.049475 0.137803
1873 1 0.00889525 0.0737266 0.161419
9481 1 0.0856523 0.0615549 0.105794
9006 1 0.0264926 0.0808503 0.196936
7362 1 0.0926151 0.0187907 0.117363
5150 1 0.0670553 0.0120688 0.149009
9666 1 0.128939 0.0494842 0.108349
1169 1 0.192816 0.0809119 0.119994
15070 1 0.164549 0.0161311 0.119771
1297 1 0.18581 0.0361347 0.156729
11890 1 0.166011 0.0532096 0.123333
47 1 0.139041 0.0338792 0.142734
12829 1 0.103714 0.064119 0.143263
761 1 0.160784 0.0725061 0.155362
4477 1 0.179834 0.0999663 0.187667
5072 1 0.126855 0.0314816 0.180038
2472 1 0.126962 0.0698717 0.183689
9168 1 0.112522 0.0964032 0.112303
4782 1 0.128338 0.0903501 0.153619
12976 1 0.166693 0.0642163 0.190971
1521 1 0.163153 0.00191517 0.161445
1101 1 0.207289 0.0314074 0.120276
5384 1 0.295007 0.00402101 0.173876
11205 1 0.226057 0.0997344 0.13177
7542 1 0.289847 0.0238881 0.121941
661 1 0.250287 0.0787586 0.108909
7658 1 0.247649 0.0331328 0.127046
5974 1 0.280011 0.0640477 0.187972
1405 1 0.258965 0.0267438 0.195759
13950 1 0.247381 0.0740373 0.156661
7537 1 0.276324 0.0483192 0.148486
1288 1 0.241769 0.063876 0.197169
1626 1 0.288837 0.0773834 0.121205
1615 1 0.202552 0.0707546 0.161824
1916 1 0.211063 0.00525109 0.159824
955 1 0.276085 0.0998412 0.190854
11180 1 0.230788 0.0383504 0.171982
142 1 0.256715 0.0115584 0.159547
5453 1 0.314171 0.0516198 0.101752
722 1 0.352606 0.0554311 0.100191
1129 1 0.362433 0.0208864 0.192839
3 1 0.305242 0.076981 0.159624
1800 1 0.329271 0.019681 0.113894
4260 1 0.365199 0.0086999 0.116633
5436 1 0.396105 0.0240838 0.170854
8127 1 0.332928 0.0491983 0.182588
4470 1 0.349553 0.0370111 0.148613
9677 1 0.310632 0.0324655 0.154274
13093 1 0.37639 0.0562725 0.178863
4086 1 0.34714 0.0827837 0.168137
5064 1 0.305357 0.0313216 0.197466
7141 1 0.389026 0.0698179 0.105312
1108 1 0.391428 0.0922469 0.153781
1482 1 0.331213 0.0745125 0.128848
702 1 0.479312 0.0104438 0.117505
10665 1 0.449341 0.0142904 0.144228
8697 1 0.456 0.0795801 0.149424
1196 1 0.41984 0.071259 0.131499
11287 1 0.427454 0.0583373 0.167722
11496 1 0.409432 0.0303878 0.132387
1462 1 0.463908 0.0536832 0.186197
1171 1 0.43363 0.0900039 0.190553
1645 1 0.45453 0.0887021 0.108224
624 1 0.439751 0.00575327 0.104807
8442 1 0.481051 0.0632522 0.100513
271 1 0.452318 0.0479719 0.125269
4769 1 0.458287 0.0164545 0.181686
1833 1 0.479419 0.0435651 0.153362
9369 1 0.484194 0.000888193 0.16193
9484 1 0.496628 0.0941757 0.115627
9244 1 0.00864564 0.112384 0.166548
576 1 0.00798566 0.170343 0.150096
3708 1 0.0063101 0.102596 0.127732
9643 1 0.0400972 0.110374 0.110562
1418 1 0.0782963 0.117869 0.113872
8537 1 0.0243922 0.138119 0.136513
10571 1 0.0461723 0.103788 0.160836
10703 1 0.0565969 0.151567 0.11786
9288 1 0.0802397 0.19114 0.140703
10038 1 0.021639 0.185436 0.185059
15065 1 0.0205923 0.171809 0.109287
12518 1 0.0480035 0.169349 0.154089
5185 1 0.0877012 0.164939 0.174432
5542 1 0.0626479 0.189881 0.101063
3548 1 0.0679291 0.132209 0.152106
10400 1 0.0546422 0.105219 0.199592
12108 1 0.0772897 0.134201 0.189099
1362 1 0.0347563 0.141897 0.185701
15891 1 0.00355243 0.136114 0.102592
11766 1 0.158944 0.159744 0.114226
2175 1 0.186385 0.134121 0.11432
11197 1 0.181687 0.18825 0.100163
9761 1 0.175772 0.192357 0.145555
3692 1 0.101987 0.149712 0.129789
9577 1 0.107292 0.120503 0.163728
8948 1 0.134183 0.136653 0.138568
13272 1 0.149148 0.120638 0.16878
7722 1 0.159058 0.104712 0.130546
16198 1 0.194464 0.108586 0.151104
5056 1 0.143143 0.162043 0.165135
346 1 0.182544 0.14822 0.15114
3446 1 0.123148 0.140483 0.196019
2162 1 0.117731 0.181956 0.142125
1220 1 0.181205 0.173558 0.181041
3082 1 0.215555 0.157765 0.1037
9069 1 0.224101 0.136436 0.140499
653 1 0.243892 0.112003 0.164627
2315 1 0.208214 0.128242 0.182619
5648 1 0.275201 0.109254 0.100036
1245 1 0.216762 0.163804 0.168925
9883 1 0.28805 0.135477 0.170829
571 1 0.261007 0.12911 0.129288
9209 1 0.276582 0.10176 0.151845
1296 1 0.299343 0.171267 0.155243
12428 1 0.210448 0.182907 0.133663
4499 1 0.271611 0.169523 0.123774
11245 1 0.231429 0.100191 0.197842
863 1 0.282529 0.161281 0.197807
400 1 0.254229 0.156836 0.164355
1450 1 0.278907 0.191368 0.178572
5813 1 0.343395 0.139376 0.129278
4479 1 0.317448 0.110334 0.106483
4826 1 0.360836 0.105126 0.134413
8045 1 0.322341 0.107297 0.189163
5917 1 0.313816 0.123588 0.147026
1492 1 0.342149 0.175016 0.149006
759 1 0.300689 0.145509 0.11578
365 1 0.353844 0.125608 0.166406
290 1 0.363251 0.193684 0.117402
688 1 0.38006 0.1479 0.123281
927 1 0.341195 0.188746 0.185833
1469 1 0.321384 0.150921 0.179723
1593 1 0.3717 0.168627 0.170189
34 1 0.393832 0.133073 0.161574
737 1 0.315262 0.182932 0.120822
5995 1 0.380316 0.104466 0.192191
1715 1 0.379729 0.199565 0.19823
1616 1 0.452797 0.180553 0.133428
7063 1 0.494 0.104584 0.162154
11595 1 0.488595 0.195257 0.142159
4932 1 0.403855 0.10819 0.11589
438 1 0.403176 0.193165 0.118309
2 1 0.442661 0.169589 0.172894
1231 1 0.441365 0.145315 0.136751
9347 1 0.470906 0.118462 0.130428
3066 1 0.43063 0.13224 0.188247
1222 1 0.413843 0.193175 0.157011
2030 1 0.431614 0.108555 0.143769
616 1 0.483547 0.15713 0.179427
1883 1 0.407448 0.169616 0.189811
9270 1 0.4611 0.122002 0.171283
7805 1 0.474312 0.155921 0.107587
1866 1 0.0324047 0.28328 0.171693
15976 1 0.0232801 0.229036 0.182154
11888 1 0.088994 0.292464 0.130657
11779 1 0.0441203 0.238316 0.114786
1300 1 0.0935619 0.209715 0.106871
3738 1 0.0905821 0.253727 0.121103
11179 1 0.0717797 0.261342 0.164986
14029 1 0.0532423 0.202092 0.172735
14107 1 0.0335343 0.205826 0.134807
9716 1 0.0652698 0.231647 0.144722
15339 1 0.027857 0.248995 0.149628
16244 1 0.0887815 0.206781 0.192808
10613 1 0.0661312 0.28674 0.191867
406 1 0.0549399 0.272105 0.128547
13832 1 0.0248837 0.295844 0.131073
8843 1 0.00689933 0.237745 0.118539
837 1 0.101536 0.218299 0.160422
11048 1 0.16827 0.210904 0.187665
2998 1 0.140141 0.211457 0.159894
8857 1 0.140174 0.250338 0.167017
10194 1 0.156768 0.258158 0.133502
10885 1 0.171546 0.225372 0.115459
654 1 0.138626 0.200479 0.112246
9241 1 0.122832 0.22947 0.125855
12727 1 0.126719 0.281321 0.113651
9752 1 0.183676 0.247861 0.157038
1259 1 0.108097 0.266057 0.153779
8222 1 0.19691 0.258834 0.117437
613 1 0.1959 0.284224 0.164018
1387 1 0.106655 0.247252 0.187649
4736 1 0.138025 0.291155 0.15568
14473 1 0.173824 0.292929 0.134937
10251 1 0.126385 0.216267 0.195507
4711 1 0.128146 0.293855 0.19622
1683 1 0.162285 0.273071 0.191233
1111 1 0.243693 0.209904 0.119086
561 1 0.220267 0.238535 0.177938
1568 1 0.245023 0.206573 0.160289
5465 1 0.206216 0.202458 0.167816
782 1 0.270874 0.275033 0.136092
1434 1 0.282089 0.205216 0.139613
129 1 0.235507 0.255316 0.109161
900 1 0.206119 0.222439 0.132576
3978 1 0.247559 0.243839 0.150421
5221 1 0.236637 0.285806 0.160629
13678 1 0.291858 0.276689 0.183207
1577 1 0.272077 0.236192 0.115567
9983 1 0.215385 0.293982 0.117514
9949 1 0.250954 0.208581 0.196129
328 1 0.289231 0.240889 0.163148
5511 1 0.257708 0.251224 0.193752
9049 1 0.260544 0.296546 0.196701
3802 1 0.350807 0.230156 0.103816
975 1 0.397758 0.228391 0.170385
8865 1 0.329491 0.214564 0.139172
314 1 0.379132 0.236827 0.129176
32 1 0.342632 0.267949 0.131432
3542 1 0.33225 0.244301 0.162262
8204 1 0.377799 0.286946 0.122226
13061 1 0.310935 0.245026 0.122899
1001 1 0.312084 0.21173 0.171812
1062 1 0.36497 0.212554 0.161465
3669 1 0.368674 0.267137 0.165724
6921 1 0.335042 0.287114 0.172204
5372 1 0.30737 0.280661 0.147319
10315 1 0.396662 0.298588 0.188648
682 1 0.317799 0.25353 0.19986
313 1 0.483694 0.22123 0.113833
1356 1 0.415902 0.275526 0.108951
11476 1 0.478517 0.250351 0.14584
1284 1 0.476297 0.237016 0.192689
423 1 0.418346 0.208373 0.199638
1879 1 0.414511 0.232078 0.112713
434 1 0.462113 0.205167 0.171848
501 1 0.442674 0.23785 0.169156
3750 1 0.407612 0.270779 0.149999
8438 1 0.446944 0.219463 0.13801
1831 1 0.457573 0.283573 0.114066
4811 1 0.452445 0.24767 0.107344
14605 1 0.420142 0.268003 0.18725
8355 1 0.472857 0.299727 0.164317
9778 1 0.447951 0.270512 0.148374
1650 1 0.497168 0.282412 0.12984
1265 1 0.45604 0.278172 0.190676
10292 1 0.499775 0.201319 0.189639
13107 1 0.0752914 0.374405 0.139415
6317 1 0.0243841 0.320653 0.163205
14003 1 0.0312186 0.379507 0.163467
9274 1 0.0479553 0.348844 0.179151
13290 1 0.0797353 0.374485 0.1872
10227 1 0.084981 0.332321 0.141692
9025 1 0.0459804 0.347033 0.136463
12351 1 0.0592912 0.30751 0.153605
8897 1 0.0640669 0.317888 0.112635
15893 1 0.0435538 0.391066 0.199401
5950 1 0.0799716 0.396783 0.107247
12732 1 0.0258719 0.377398 0.120536
16077 1 0.099926 0.303806 0.169828
1030 1 0.00519544 0.33482 0.194959
12941 1 0.00721676 0.375678 0.192048
9254 1 0.00198903 0.395692 0.143474
11737 1 0.0170366 0.337802 0.111792
9461 1 0.100635 0.314831 0.101867
12919 1 0.148017 0.314848 0.111905
15904 1 0.178591 0.39414 0.101187
10073 1 0.176831 0.345614 0.131129
9441 1 0.107774 0.359462 0.161634
4894 1 0.125988 0.328588 0.178334
3533 1 0.129062 0.350383 0.12388
1408 1 0.163902 0.318697 0.160894
13865 1 0.11913 0.316707 0.134095
8818 1 0.148781 0.357826 0.16444
6252 1 0.168622 0.38889 0.172546
13148 1 0.125081 0.392421 0.189411
3052 1 0.182561 0.353785 0.182427
8226 1 0.113506 0.394974 0.134725
15822 1 0.161073 0.381748 0.134572
8933 1 0.178776 0.308877 0.199037
1907 1 0.279582 0.365059 0.101041
1251 1 0.243293 0.324595 0.150646
8886 1 0.274242 0.303019 0.15808
10473 1 0.20281 0.361402 0.101911
2589 1 0.245656 0.372186 0.108841
11602 1 0.262976 0.352963 0.136903
534 1 0.271348 0.317404 0.120635
2051 1 0.202613 0.320835 0.149328
5977 1 0.20215 0.375838 0.14635
9554 1 0.222202 0.339085 0.122812
5120 1 0.262122 0.337447 0.18261
5553 1 0.220485 0.350537 0.170187
7037 1 0.235091 0.390951 0.17938
3434 1 0.273065 0.375344 0.166105
9558 1 0.283081 0.396021 0.125996
10141 1 0.219615 0.310282 0.189137
8816 1 0.201058 0.380241 0.199306
12928 1 0.303637 0.303537 0.114183
801 1 0.350209 0.393009 0.100155
5509 1 0.32011 0.336341 0.101709
3057 1 0.386343 0.365549 0.107159
180 1 0.31579 0.378311 0.102787
8912 1 0.355774 0.323135 0.103081
10462 1 0.317029 0.37618 0.17733
5981 1 0.369342 0.373479 0.170417
15617 1 0.373403 0.395447 0.140223
5852 1 0.342642 0.347059 0.13008
5533 1 0.306472 0.325049 0.14589
4313 1 0.300744 0.340657 0.180497
2239 1 0.342085 0.344442 0.165183
1070 1 0.350683 0.308877 0.139135
1181 1 0.306696 0.36178 0.138649
874 1 0.364532 0.311652 0.171636
1270 1 0.392482 0.342055 0.184423
11807 1 0.396484 0.308724 0.151608
131 1 0.384672 0.344578 0.149634
1519 1 0.336699 0.388321 0.143411
42 1 0.334879 0.318634 0.194632
9417 1 0.497027 0.317631 0.197325
4765 1 0.458129 0.360311 0.100073
4617 1 0.424634 0.367035 0.123077
1882 1 0.47879 0.393247 0.148619
1982 1 0.431858 0.309661 0.130863
1255 1 0.434287 0.30864 0.17835
5029 1 0.467757 0.322009 0.129101
8525 1 0.460192 0.360752 0.138698
959 1 0.405096 0.331648 0.109722
3162 1 0.413856 0.39467 0.199772
374 1 0.441532 0.39524 0.141668
3321 1 0.450557 0.381632 0.175743
1733 1 0.436514 0.351221 0.191322
9210 1 0.483169 0.362508 0.191261
1059 1 0.425572 0.339267 0.155321
8335 1 0.467056 0.33761 0.167938
7924 1 0.409769 0.381029 0.162421
11 1 0.498413 0.342318 0.116431
9296 1 0.0777256 0.453227 0.184174
7038 1 0.0922982 0.447566 0.110779
7938 1 0.0997429 0.486311 0.181229
11695 1 0.0513852 0.402999 0.137618
1729 1 0.0853041 0.406604 0.164782
14461 1 0.040897 0.420651 0.106465
3641 1 0.0754306 0.433633 0.143668
2713 1 0.0432675 0.421853 0.170079
9138 1 0.0155301 0.43522 0.135326
12841 1 0.0458679 0.476647 0.184828
1218 1 0.0464582 0.465175 0.148315
3886 1 0.0355405 0.498589 0.121979
5832 1 0.0735765 0.488131 0.12358
13838 1 0.00691433 0.416763 0.187745
14777 1 0.0637364 0.499561 0.16234
12860 1 0.0166305 0.450325 0.173573
14566 1 0.00958985 0.458727 0.100462
8710 1 0.180655 0.463337 0.113858
2704 1 0.140885 0.463627 0.137674
5109 1 0.121381 0.490193 0.108674
4781 1 0.168322 0.452836 0.190557
10840 1 0.128149 0.430657 0.11271
6972 1 0.115636 0.435109 0.150853
11136 1 0.169099 0.425249 0.122388
942 1 0.178685 0.44947 0.151216
9154 1 0.148932 0.423064 0.164846
5701 1 0.133933 0.465321 0.180417
914 1 0.168611 0.486248 0.169185
13795 1 0.103317 0.471943 0.145678
4497 1 0.189326 0.414137 0.154468
1425 1 0.132887 0.49567 0.155887
16200 1 0.16127 0.490846 0.120763
3672 1 0.213071 0.40099 0.115326
13976 1 0.289978 0.440098 0.118207
16301 1 0.252069 0.411728 0.116831
1343 1 0.268451 0.413943 0.159874
15308 1 0.221449 0.469816 0.148829
11885 1 0.21038 0.438577 0.126907
3527 1 0.228146 0.41138 0.15077
2860 1 0.251273 0.45078 0.115204
2374 1 0.204398 0.45945 0.18315
2953 1 0.2797 0.463354 0.149266
11537 1 0.269815 0.468102 0.193669
573 1 0.245706 0.441265 0.17656
5347 1 0.294535 0.42467 0.18962
7931 1 0.239114 0.490895 0.103336
8269 1 0.212622 0.423474 0.182705
10175 1 0.236727 0.479036 0.189042
1316 1 0.20418 0.495494 0.118123
15481 1 0.289683 0.479513 0.11564
7365 1 0.257936 0.496643 0.145659
6431 1 0.30857 0.439926 0.156731
5714 1 0.357279 0.430563 0.137099
8018 1 0.319168 0.412356 0.119894
6522 1 0.331885 0.457422 0.128679
2729 1 0.383028 0.453074 0.155274
744 1 0.391011 0.416452 0.111643
1538 1 0.322161 0.499558 0.136915
7282 1 0.38254 0.412666 0.173632
10943 1 0.309037 0.473942 0.176297
3659 1 0.363282 0.477772 0.128017
15770 1 0.368209 0.448848 0.19505
2981 1 0.33986 0.413924 0.177798
6235 1 0.305331 0.404455 0.156358
12992 1 0.346727 0.462278 0.16459
1708 1 0.370425 0.492979 0.192804
752 1 0.393731 0.490775 0.151056
1979 1 0.482043 0.462515 0.151072
2252 1 0.48322 0.408243 0.190139
14041 1 0.402435 0.471234 0.184032
15205 1 0.441106 0.460592 0.11814
3520 1 0.415253 0.42486 0.152632
1044 1 0.455265 0.433131 0.141121
1949 1 0.424275 0.463345 0.154852
3294 1 0.474808 0.487708 0.177207
4346 1 0.401223 0.464027 0.120803
4759 1 0.468421 0.405429 0.114016
5406 1 0.442261 0.41594 0.184244
4804 1 0.478852 0.474007 0.110315
7720 1 0.43611 0.494168 0.172304
5725 1 0.474198 0.451022 0.185361
940 1 0.456404 0.496918 0.138969
11838 1 0.012958 0.011334 0.215769
1542 1 0.0782127 0.0725444 0.206762
11510 1 0.0345245 0.0421479 0.206088
1355 1 0.0948544 0.00472686 0.250891
4846 1 0.0673858 0.0399666 0.230951
2670 1 0.0487702 0.0516121 0.267281
9810 1 0.0847492 0.0509925 0.28638
941 1 0.0435476 0.0716413 0.233585
9071 1 0.0848026 0.0751586 0.253966
13712 1 0.0566312 0.010112 0.272796
5189 1 0.0269234 0.0262419 0.251087
4417 1 0.00533409 0.0640729 0.231133
1602 1 0.0653426 0.0843166 0.287942
1078 1 0.0233897 0.0221634 0.292153
9963 1 0.0345095 0.093049 0.266586
12488 1 0.0587375 0.00251708 0.233854
2131 1 0.00113369 0.0493816 0.278245
5100 1 0.100357 0.0279854 0.218026
13151 1 0.11618 0.06682 0.222386
8399 1 0.137046 0.0222324 0.266373
904 1 0.107142 0.0918234 0.280993
7358 1 0.18279 0.0870959 0.22862
14301 1 0.151164 0.0370864 0.231081
15162 1 0.149796 0.0762969 0.243551
4084 1 0.108377 0.0442706 0.256259
3222 1 0.175488 0.0219353 0.267342
8460 1 0.15406 0.0857113 0.280302
6026 1 0.186721 0.0454627 0.221794
5726 1 0.183901 0.0599644 0.267887
12037 1 0.129275 0.0569305 0.285899