ITEM: TIMESTEP
10000
ITEM: NUMBER OF ATOMS
16384
ITEM: BOX BOUNDS pp pp pp
0.0000000000000000e+00 8.0764399999999995e+01
0.0000000000000000e+00 8.0764399999999995e+01
0.0000000000000000e+00 8.0764399999999995e+01
ITEM: ATOMS id type xs ys zs
635 1 0.114503 0.000483276 0.0494394
861 1 0.233684 0.104917 0.0209358
3381 1 0.00702569 0.0942244 0.0911871
1688 1 0.0626591 0.0261645 0.0748559
3120 1 0.42439 0.388034 0.0177028
10192 1 0.0321857 0.0481536 0.00758815
13179 1 0.0821951 0.016393 0.108039
580 1 0.0269543 0.0734826 0.036018
1682 1 0.161123 0.0216952 0.440966
3581 1 0.403368 0.0309952 0.491848
1533 1 0.199534 0.348944 0.00907996
10078 1 0.0473218 0.0665025 0.0710914
1397 1 0.0229202 0.0312293 0.0916954
674 1 0.0714962 0.0392112 0.0217944
5077 1 0.0475329 0.485326 0.396763
1515 1 0.0327448 0.03208 0.0488152
14203 1 0.391135 0.0196345 0.341155
9956 1 0.496181 0.287456 0.36103
4211 1 0.0828104 0.493938 0.0423737
1778 1 0.490224 0.0584938 0.394145
8617 1 0.0142144 0.355288 0.0881012
4819 1 0.49811 0.451528 0.403698
5185 1 0.0975496 0.0376153 0.142295
5165 1 0.136315 0.0469028 0.0435896
1403 1 0.133605 0.0745953 0.0720013
721 1 0.107945 0.0994176 0.0243018
3771 1 0.178631 0.10963 0.0684417
5126 1 0.223408 0.115022 0.070494
1128 1 0.0882683 0.0607771 0.0883263
1349 1 0.162284 0.0698152 0.0977957
3446 1 0.0719038 0.123586 0.0266093
1530 1 0.171799 0.0693367 0.0564438
264 1 0.287544 0.0237139 0.447532
6463 1 0.174565 0.0624781 0.139557
630 1 0.208518 0.0821354 0.0849976
8720 1 0.110615 0.433363 0.033783
9359 1 0.48202 0.371667 0.107302
7887 1 0.0836117 0.0743131 0.0473472
204 1 0.173497 0.0273844 0.05173
2700 1 0.141924 0.0834238 0.0330152
6077 1 0.191166 0.0193423 0.0837652
3981 1 0.241001 0.0247347 0.0242501
5170 1 0.227944 0.152374 0.0697839
731 1 0.205654 0.0897906 0.0457817
7875 1 0.211135 0.0547824 0.111843
5884 1 0.310238 0.485366 0.468922
1986 1 0.225065 0.00724766 0.0595565
1984 1 0.246736 0.0348685 0.079091
14027 1 0.485197 0.418284 0.416941
1977 1 0.287588 0.0103434 0.0177206
1419 1 0.285854 0.0428981 0.0409856
4430 1 0.146802 0.494559 0.112564
4292 1 0.399655 0.153394 0.00277443
5856 1 0.296593 0.0269963 0.248188
14965 1 0.0172667 0.427318 0.0843402
2263 1 0.392387 0.494013 0.0068334
543 1 0.496251 0.229599 0.439913
6204 1 0.322881 0.0260468 0.0766796
459 1 0.32585 0.0689333 0.0592648
2461 1 0.368563 0.092654 0.0517154
8555 1 0.0472562 0.304677 0.259703
4584 1 0.0745213 0.499698 0.369007
1312 1 0.362364 0.0393347 0.0593514
1672 1 0.177727 0.406505 0.0249103
5057 1 0.150494 0.49307 0.17081
1116 1 0.388574 0.0610073 0.0348495
5309 1 0.492555 0.488804 0.171906
8385 1 0.151567 0.166614 0.489571
55 1 0.322374 0.0398197 0.0274297
7638 1 0.312873 0.0896362 0.0887421
897 1 0.213192 0.392264 0.0130527
602 1 0.362467 0.01845 0.0964491
11864 1 0.4984 0.262029 0.0346688
11287 1 0.439211 0.033415 0.0831904
1250 1 0.403634 0.047257 0.0716935
9419 1 0.449812 0.0139103 0.0241189
5999 1 0.422628 0.0403021 0.0400725
5444 1 0.417695 0.141674 0.0736511
1188 1 0.35068 0.0721221 0.0242666
11323 1 0.46182 0.47732 0.483321
8316 1 0.0579469 0.313287 0.0322549
66 1 0.434754 0.074527 0.0623216
4419 1 0.472233 0.0614466 0.0839425
4096 1 0.358153 0.00309796 0.16181
14066 1 0.0127979 0.475644 0.466579
1759 1 0.496552 0.0801997 0.424931
3738 1 0.122306 0.412675 0.00190369
4672 1 0.238843 0.459466 0.469032
1043 1 0.0866462 0.235569 0.0372787
8926 1 0.000607997 0.108727 0.0429268
1542 1 0.0619075 0.106774 0.0611324
621 1 0.101026 0.150838 0.044546
725 1 0.460858 0.00585395 0.256312
1764 1 0.0558463 0.144101 0.0632931
10613 1 0.0747414 0.166643 0.0892718
8857 1 0.0674555 0.181983 0.0503974
5213 1 0.352023 0.0104786 0.0253459
11048 1 0.0945999 0.186202 0.0185648
5111 1 0.238784 0.000460414 0.283323
3151 1 0.0232813 0.233959 0.478145
1411 1 0.460018 0.279358 0.481158
1059 1 0.127125 0.455229 0.00580542
8311 1 0.133782 0.31977 0.00231005
7720 1 0.115017 0.473603 0.0422323
3884 1 0.0999642 0.0990193 0.103881
4585 1 0.370331 0.49113 0.320419
2377 1 0.106524 0.13616 0.094047
759 1 0.13449 0.15625 0.0299364
1568 1 0.193319 0.121895 0.0300572
8716 1 0.10282 0.112113 0.0599197
837 1 0.10558 0.190908 0.0559249
284 1 0.146898 0.12235 0.0415752
1818 1 0.174324 0.154342 0.0394426
1873 1 0.129566 0.160372 0.0727944
1009 1 0.139732 0.11362 0.0865124
8848 1 0.022318 0.248637 0.0598764
3052 1 0.227074 0.146419 0.0293399
2384 1 0.209119 0.115337 0.105142
8548 1 0.492643 0.0986661 0.131762
799 1 0.19084 0.172458 0.0727142
8536 1 0.164766 0.143762 0.079397
2213 1 0.156557 0.171491 0.00466611
9755 1 0.00454024 0.267733 0.0323292
2763 1 0.231452 0.219872 0.0881034
7362 1 0.0575632 0.0878654 0.0142136
1272 1 0.124696 0.484456 0.218265
1956 1 0.48691 0.489431 0.452097
3604 1 0.197212 0.178164 0.0190637
4976 1 0.0372543 0.489349 0.324341
1378 1 0.241764 0.191836 0.018156
258 1 0.256681 0.0773439 0.00297301
707 1 0.26144 0.175984 0.0469265
314 1 0.22806 0.191495 0.0572659
1234 1 0.265402 0.181072 0.0931563
1030 1 0.0123044 0.307134 0.14735
4118 1 0.274481 0.477922 0.160651
1857 1 0.193539 0.248517 0.0701835
1754 1 0.258083 0.132564 0.00288486
13252 1 0.00968953 0.0628527 0.109885
7662 1 0.356574 0.145771 0.0463743
1898 1 0.284039 0.0814391 0.0381807
692 1 0.325468 0.151236 0.105299
6630 1 0.315145 0.105604 0.0406729
1412 1 0.326416 0.180915 0.011088
7480 1 0.321788 0.1443 0.028129
37 1 0.396062 0.0896363 0.0811452
1881 1 0.304444 0.132631 0.0707792
696 1 0.349217 0.205095 0.0703679
173 1 0.37482 0.17887 0.0543568
5833 1 0.340877 0.112497 0.0723735
1313 1 0.330867 0.175758 0.0513242
2696 1 0.375075 0.221833 0.0366621
271 1 0.366283 0.143411 0.00544816
1176 1 0.259082 0.120418 0.0457253
110 1 0.351236 0.15611 0.0804237
10144 1 0.028275 0.357766 0.404571
3660 1 0.458258 0.0463789 0.0518915
12965 1 0.0108424 0.490802 0.131493
5911 1 0.411247 0.098477 0.0375338
11084 1 0.432035 0.136165 0.0314018
1886 1 0.406806 0.167953 0.036564
9869 1 0.454339 0.166569 0.0596856
549 1 0.38858 0.128987 0.0378956
82 1 0.379686 0.125352 0.0799128
1101 1 0.270207 0.00971289 0.0591429
5696 1 0.286272 0.0105901 0.412337
12542 1 0.276612 0.481426 0.0834666
3179 1 0.437797 0.106361 0.0878178
2255 1 0.176233 0.0308076 0.11904
8266 1 0.468701 0.110278 0.0647349
10090 1 0.471521 0.132613 0.0143082
11348 1 0.420226 0.201358 0.039526
1656 1 0.0173321 0.198961 0.0973638
1743 1 0.0382033 0.202951 0.026826
1227 1 0.115678 0.18303 0.0973386
9627 1 0.0487933 0.272103 0.131977
1617 1 0.089189 0.215667 0.0820101
2826 1 0.101262 0.257354 0.0685542
9322 1 0.109485 0.0227229 0.0846294
210 1 0.0565851 0.247151 0.106548
2291 1 0.125286 0.224327 0.0454816
3528 1 0.212928 0.206501 0.499845
2036 1 0.0510133 0.249686 0.031011
63 1 0.0705931 0.283787 0.0490568
7037 1 0.156784 0.472326 0.0548557
817 1 0.00346027 0.424547 0.297329
8190 1 0.0320724 0.289314 0.058311
9768 1 0.0288813 0.469542 0.367329
9761 1 0.110863 0.241871 0.00187631
2502 1 0.1903 0.208916 0.0590379
1340 1 0.114853 0.275035 0.0385348
3365 1 0.173799 0.210709 0.0216423
1385 1 0.171481 0.270538 0.0931204
752 1 0.126818 0.221991 0.0967204
290 1 0.155916 0.191141 0.0532071
942 1 0.158752 0.226082 0.118318
4023 1 0.252172 0.0102589 0.432299
1605 1 0.150109 0.25942 0.0492131
308 1 0.210969 0.214036 0.010442
500 1 0.161025 0.228986 0.0770603
119 1 0.151616 0.186857 0.0931809
8964 1 0.134499 0.201047 0.0153546
8515 1 0.000862445 0.157577 0.108179
3864 1 0.265844 0.218562 0.0246547
1245 1 0.285565 0.153511 0.0272489
4212 1 0.31133 0.0143639 0.155338
1063 1 0.196174 0.251221 0.112151
2479 1 0.245723 0.270222 0.0436674
3669 1 0.280671 0.272552 0.104372
1487 1 0.306942 0.254874 0.0829892
3351 1 0.279756 0.284246 0.0666856
2967 1 0.296184 0.191525 0.038435
1559 1 0.0365252 0.0970285 0.201165
2969 1 0.330471 0.259579 0.0291077
3542 1 0.223087 0.232081 0.0454015
943 1 0.206691 0.28984 0.0271936
1827 1 0.294222 0.251706 0.0438488
2215 1 0.268539 0.231935 0.0993159
1922 1 0.244837 0.268193 0.0816788
1387 1 0.186233 0.253377 0.0254291
5316 1 0.271849 0.485952 0.0436048
72 1 0.340445 0.240724 0.0640302
1785 1 0.3746 0.261143 0.0533421
231 1 0.29327 0.202113 0.111564
3633 1 0.0977618 0.045912 0.389697
1032 1 0.398778 0.251196 0.116293
452 1 0.358105 0.257624 0.105249
497 1 0.42468 0.315618 0.0551782
151 1 0.33635 0.297438 0.0153
1160 1 0.335822 0.225276 0.108459
778 1 0.366615 0.298297 0.0486592
1395 1 0.312269 0.216545 0.0759219
5996 1 0.0920171 0.46132 0.148399
4507 1 0.422878 0.00143249 0.346287
2222 1 0.334412 0.217384 0.0332793
2336 1 0.365502 0.273719 0.0132536
8890 1 0.454844 0.264701 0.0225859
8401 1 0.0368611 0.00982528 0.0127133
1457 1 0.477197 0.16738 0.100044
9426 1 0.404659 0.199798 0.0744147
372 1 0.421917 0.238032 0.0778087
1725 1 0.399931 0.286657 0.0297006
525 1 0.417245 0.250136 0.0323918
9778 1 0.444374 0.215345 0.108928
16257 1 0.0458443 0.48808 0.445081
1744 1 0.497859 0.184897 0.339686
2487 1 0.474666 0.240684 0.0607511
606 1 0.431739 0.350376 0.0348519
3736 1 0.480128 0.294061 0.0544526
2171 1 0.499155 0.272827 0.0819694
2464 1 0.0857165 0.193126 0.493674
13554 1 0.477881 0.196348 0.042904
5638 1 0.0889514 0.476153 0.00496494
1776 1 0.448445 0.20732 0.0696195
5245 1 0.466575 0.481306 0.00460128
11950 1 0.0267644 0.333775 0.0553138
2453 1 0.0983709 0.308472 0.0235282
14263 1 0.0303426 0.499902 0.27737
1447 1 0.0556311 0.357405 0.0381163
737 1 0.0855265 0.383065 0.0223139
975 1 0.097527 0.343775 0.0380728
2472 1 0.156591 0.119263 0.00621573
1819 1 0.122428 0.373926 0.00759625
9310 1 0.062487 0.318388 0.0697461
2353 1 0.0566576 0.250513 0.06955
2667 1 0.107852 0.30401 0.0695962
1683 1 0.0552265 0.355287 0.0847324
450 1 0.074554 0.284148 0.0854125
1552 1 0.086339 0.372242 0.0586582
7860 1 0.211535 0.0442802 0.0650777
8880 1 0.376624 0.0976188 0.0062398
8179 1 0.0418097 0.394873 0.031803
9999 1 0.470812 0.257599 0.10995
9207 1 0.0183271 0.192077 0.301383
1492 1 0.136999 0.322381 0.0923796
2998 1 0.134676 0.317855 0.043009
9347 1 0.127687 0.360757 0.0518561
2961 1 0.169624 0.0235663 0.00920209
384 1 0.147376 0.294628 0.0676274
7141 1 0.424128 0.0025852 0.0530346
994 1 0.161452 0.353897 0.0793441
310 1 0.219619 0.0636554 0.020417
1655 1 0.194783 0.386925 0.082395
1316 1 0.162578 0.358 0.036617
736 1 0.151214 0.394991 0.09259
614 1 0.113369 0.375754 0.0910673
3728 1 0.146714 0.246068 0.0115876
1936 1 0.20146 0.336594 0.0684876
9987 1 0.204994 0.356386 0.105513
753 1 0.131915 0.337987 0.126954
1946 1 0.183935 0.287979 0.0581682
9099 1 0.0770889 0.491489 0.333669
988 1 0.201036 0.370119 0.0423193
427 1 0.229711 0.300894 0.0669202
8912 1 0.219618 0.330226 0.0362585
939 1 0.315381 0.286692 0.0514121
990 1 0.283533 0.366706 0.048656
1475 1 0.331261 0.32724 0.0419384
1566 1 0.252773 0.405373 0.0124031
1973 1 0.476542 0.400737 0.0568151
633 1 0.325824 0.359565 0.064262
2373 1 0.26989 0.331874 0.0276997
8456 1 0.0833792 0.47674 0.0777019
1953 1 0.252495 0.332074 0.0698664
9570 1 0.101858 0.00856835 0.405492
829 1 0.0047893 0.0284491 0.465639
885 1 0.17712 0.318958 0.0317195
3533 1 0.0191623 0.336174 0.0156062
3057 1 0.414033 0.417317 0.044559
634 1 0.338645 0.396327 0.0551076
3802 1 0.316059 0.366964 0.0281984
2129 1 0.356796 0.367516 0.0248403
254 1 0.299866 0.325508 0.061011
3162 1 0.356221 0.326047 0.0766127
1989 1 0.36517 0.365884 0.0717157
702 1 0.236808 0.35689 0.0129033
1668 1 0.394192 0.37965 0.0444163
1016 1 0.407769 0.277465 0.0783672
3541 1 0.320014 0.372551 0.099924
411 1 0.382634 0.33264 0.0320756
323 1 0.367263 0.499122 0.279711
733 1 0.350478 0.170531 0.497186
935 1 0.196219 0.0117814 0.147319
3948 1 0.413458 0.321955 0.0113395
3032 1 0.479751 0.353555 0.0698894
18 1 0.398237 0.348078 0.0662538
116 1 0.45247 0.297673 0.0891133
6000 1 0.43989 0.385918 0.0599408
1109 1 0.287056 0.108904 0.00293625
8870 1 0.467009 0.337408 0.00475145
12748 1 0.00791815 0.4805 0.169044
10139 1 0.483909 0.319299 0.08617
2236 1 0.466527 0.409307 0.0971471
3008 1 0.44611 0.299658 0.0229947
8458 1 0.486058 0.365994 0.349036
5533 1 0.283418 0.471299 0.00306378
1332 1 0.446263 0.271019 0.0623308
958 1 0.44298 0.380868 0.103435
8816 1 0.00914275 0.407531 0.049286
8793 1 0.0428118 0.0603992 0.404434
446 1 0.0368942 0.437515 0.0363511
1649 1 0.114135 0.413818 0.0877844
986 1 0.090782 0.41589 0.0590099
3400 1 0.0462639 0.475197 0.0197419
9427 1 0.49897 0.225306 0.0270571
5172 1 0.110209 0.44954 0.0723416
7776 1 0.143806 0.458073 0.0890991
4725 1 0.314056 0.00415286 0.36762
26 1 0.478424 0.147868 0.41522
10741 1 0.498761 0.104642 0.0238471
13097 1 0.0750508 0.450463 0.0423786
4762 1 0.0513922 0.412071 0.0650886
748 1 0.0671601 0.456167 0.116384
4080 1 0.363082 0.00281621 0.416095
1952 1 0.485691 0.495461 0.316009
1011 1 0.145794 0.0554195 0.00239569
9129 1 0.101445 0.360523 0.478873
6323 1 0.20735 0.435512 0.0306873
1940 1 0.163047 0.391219 0.0570215
8116 1 0.18303 0.459267 0.00240799
13657 1 0.120805 0.400697 0.0391383
4617 1 0.146748 0.426642 0.0670975
12843 1 0.389459 0.0107753 0.264353
2123 1 0.155339 0.441762 0.0261678
782 1 0.186873 0.421564 0.0620922
5348 1 0.179498 0.427433 0.0988299
751 1 0.0201376 0.0999422 0.45374
191 1 0.490691 0.0205971 0.216335
532 1 0.473078 0.16969 0.306965
1341 1 0.22636 0.00788432 0.107823
4903 1 0.177458 0.480514 0.0928136
6348 1 0.217244 0.438759 0.0923443
2460 1 0.282352 0.445954 0.0494684
6903 1 0.265594 0.401787 0.0467853
1992 1 0.00874281 0.402991 0.187244
8869 1 0.0241969 0.134329 0.347913
13777 1 0.00257345 0.407171 0.116066
5933 1 0.125537 0.0123034 0.123636
3366 1 0.224204 0.251067 0.00536359
1304 1 0.290684 0.433889 0.0870739
1523 1 0.228489 0.484593 0.0632167
4317 1 0.252026 0.461766 0.0239448
2855 1 0.33337 0.432276 0.0699109
786 1 0.224827 0.40989 0.0527518
560 1 0.359365 0.0334899 0.498029
6050 1 0.237875 0.448594 0.0563056
1495 1 0.28289 0.434311 0.00452588
7128 1 0.306029 0.413962 0.0416618
3092 1 0.300855 0.395083 0.0754795
3332 1 0.404022 0.400016 0.0830806
1399 1 0.0104422 0.026684 0.334733
1966 1 0.407056 0.453631 0.0649842
2643 1 0.357145 0.395917 0.0870158
1175 1 0.382151 0.489239 0.0767388
86 1 0.310749 0.467004 0.059288
706 1 0.378303 0.422797 0.0614047
105 1 0.375038 0.444565 0.0996002
3128 1 0.430039 0.471002 0.0241007
6035 1 0.355599 0.465262 0.060677
1363 1 0.351083 0.437237 0.032116
9327 1 0.481044 0.269922 0.155387
2609 1 0.387099 0.458056 0.0332043
679 1 0.314743 0.456151 0.0234694
3634 1 0.246189 0.337549 0.447678
4546 1 0.43154 0.422497 0.117408
821 1 0.00751548 0.226395 0.0373541
14253 1 0.00917842 0.00234303 0.492211
8330 1 0.0208707 0.240682 0.131063
1586 1 0.236132 0.493842 0.490274
856 1 0.449503 0.43304 0.0413076
141 1 0.463099 0.479553 0.108666
3525 1 0.444318 0.475027 0.0625683
7435 1 0.206307 0.0216765 0.454312
465 1 0.175957 0.0405003 0.3505
1858 1 0.43553 0.424199 0.0768217
6424 1 0.205937 0.477857 0.0303096
9190 1 0.467705 0.443976 0.0852198
4483 1 0.485735 0.497742 0.355853
12182 1 0.484374 0.460501 0.0414295
9534 1 0.0225047 0.0577591 0.191004
1757 1 0.334299 0.110887 0.00644452
1455 1 0.15506 0.481934 0.0160464
10000 1 0.0279633 0.0676327 0.144847
1667 1 0.0827639 0.0722663 0.126642
9069 1 0.078877 0.112132 0.138884
8888 1 0.0037472 0.228687 0.443049
5703 1 0.0620393 0.0239162 0.139039
1297 1 0.0903258 0.0223261 0.19484
8538 1 0.0690896 0.104115 0.224697
14019 1 0.118277 0.488381 0.0780476
7313 1 0.25291 0.00763382 0.390349
2428 1 0.325361 0.205877 0.488351
8463 1 0.0572918 0.043684 0.171626
1615 1 0.148285 0.0251765 0.0836466
1232 1 0.0784316 0.0837769 0.166902
796 1 0.144476 0.0832773 0.127503
9039 1 0.11847 0.0528602 0.109402
530 1 0.168911 0.0481268 0.206536
1633 1 0.491605 0.290006 0.199479
724 1 0.147368 0.0643788 0.170624
1124 1 0.167692 0.0272628 0.166101
1258 1 0.104042 0.0543972 0.181143
561 1 0.140984 0.0409159 0.139098
1220 1 0.158416 0.0840888 0.208841
3557 1 0.463105 0.43575 0.488634
550 1 0.220997 0.0888702 0.180485
1416 1 0.15158 0.0109891 0.276062
2545 1 0.303468 0.222736 0.0100089
650 1 0.276538 0.0312041 0.146605
1090 1 0.0334017 0.286341 0.0163988
4446 1 0.279496 0.0846252 0.112827
361 1 0.261345 0.0668308 0.147246
4599 1 0.240387 0.0194672 0.160547
641 1 0.182599 0.0709215 0.17329
1565 1 0.247984 0.0689386 0.09444
1640 1 0.248646 0.0393607 0.120996
1389 1 0.26514 0.0200261 0.194074
531 1 0.253162 0.0602478 0.0477719
1927 1 0.2827 0.0585572 0.0805508
456 1 0.21853 0.0562565 0.1565
484 1 0.303348 0.0593013 0.137374
6213 1 0.231784 0.0914559 0.127415
1434 1 0.264498 0.0695475 0.185095
9340 1 0.482453 0.11268 0.396787
1610 1 0.221434 0.154007 0.496117
5715 1 0.340153 0.0706532 0.121577
1693 1 0.361901 0.0672705 0.0875005
1664 1 0.483247 0.187653 0.482868
709 1 0.332723 0.107424 0.116719
9795 1 0.471438 0.261454 0.369135
814 1 0.368651 0.0333649 0.141405
1721 1 0.332416 0.0185345 0.120289
1871 1 0.367824 0.0978495 0.106725
4896 1 0.387807 0.0480224 0.109649
843 1 0.335041 0.0425164 0.166578
1346 1 0.389433 0.113872 0.177251
13004 1 0.295612 0.0351175 0.105443
4519 1 0.364487 0.102475 0.14463
14081 1 0.00783962 0.0258582 0.278613
3315 1 0.49844 0.22301 0.160296
4811 1 0.324881 0.0844468 0.159127
1654 1 0.257097 0.481067 0.262565
2741 1 0.402742 0.0108189 0.101134
5981 1 0.406348 0.0533405 0.160892
2288 1 0.403251 0.118304 0.10669
4549 1 0.466764 0.0752636 0.118728
5706 1 0.426081 0.0655455 0.104157
1442 1 0.410261 0.0151441 0.454353
13557 1 0.425201 0.0316847 0.127914
1645 1 0.474435 0.0309494 0.108372
967 1 0.402563 0.0855171 0.13573
754 1 0.38616 0.0756553 0.197085
802 1 0.499072 0.146695 0.216938
1324 1 0.424863 0.130645 0.179888
8697 1 0.482042 0.0743136 0.17739
4176 1 0.446822 0.0625968 0.183282
9915 1 0.470876 0.11689 0.107479
9615 1 0.467926 0.0468794 0.149439
74 1 0.0138686 0.12686 0.171154
9843 1 0.042997 0.0904065 0.111235
941 1 0.0517731 0.128193 0.0972085
2946 1 0.0894723 0.153586 0.177815
10182 1 0.0447854 0.10615 0.160463
8490 1 0.0576303 0.144479 0.152943
872 1 0.0685691 0.182466 0.247319
9242 1 0.0280417 0.132804 0.13153
932 1 0.0385733 0.165795 0.181491
10218 1 0.0346673 0.17674 0.143096
1521 1 0.0940008 0.149279 0.126929
1491 1 0.0738999 0.117294 0.1843
208 1 0.0438296 0.2029 0.171464
2113 1 0.333965 0.242289 0.481313
8336 1 0.0591267 0.146136 0.204273
503 1 0.039457 0.138857 0.396295
514 1 0.123537 0.118625 0.124626
185 1 0.166397 0.121572 0.117525
1832 1 0.115522 0.129635 0.165364
1834 1 0.185722 0.133642 0.14932
1942 1 0.113052 0.0767304 0.149323
1293 1 0.190118 0.200112 0.102046
1129 1 0.187267 0.110833 0.185007
1213 1 0.147307 0.141807 0.148331
257 1 0.219669 0.142179 0.175201
9816 1 0.188757 0.17276 0.147932
70 1 0.150992 0.104285 0.164211
1613 1 0.225804 0.17902 0.0954039
129 1 0.159475 0.188763 0.130401
1928 1 0.156784 0.199708 0.170816
576 1 0.0579157 0.196673 0.210667
177 1 0.184104 0.160561 0.112617
1877 1 0.191914 0.218447 0.174833
1066 1 0.0993018 0.195088 0.175989
423 1 0.1941 0.0944503 0.140649
47 1 0.233 0.205073 0.124443
1681 1 0.27336 0.09599 0.0751792
1571 1 0.218108 0.15266 0.125953
1696 1 0.247595 0.121068 0.104374
127 1 0.250794 0.111276 0.186258
335 1 0.290576 0.134564 0.140653
1092 1 0.246813 0.175731 0.147373
227 1 0.245935 0.132062 0.149569
1919 1 0.266989 0.218226 0.14148
1436 1 0.213605 0.188009 0.17042
1813 1 0.254879 0.195901 0.187637
1820 1 0.175525 0.168746 0.185275
1694 1 0.395567 0.158579 0.105678
1209 1 0.296561 0.170397 0.071004
1829 1 0.274686 0.100076 0.15104
1557 1 0.334227 0.151601 0.144869
892 1 0.293214 0.120864 0.104463
5065 1 0.366472 0.136002 0.112736
1444 1 0.266845 0.140647 0.0786364
1894 1 0.288687 0.178472 0.14047
5509 1 0.372499 0.172988 0.129742
311 1 0.340342 0.185921 0.173879
1049 1 0.381582 0.138521 0.146328
653 1 0.404215 0.20076 0.119409
346 1 0.325937 0.187167 0.0966868
1138 1 0.312223 0.161035 0.175408
1462 1 0.32282 0.123981 0.16504
1196 1 0.380866 0.180351 0.167475
9252 1 0.447993 0.176867 0.133134
1108 1 0.473598 0.137657 0.142599
1648 1 0.436383 0.0665443 0.142027
552 1 0.416057 0.120691 0.141851
11369 1 0.439947 0.142714 0.104568
9983 1 0.454869 0.102686 0.142045
4202 1 0.373208 0.188392 0.0952639
81 1 0.411667 0.165273 0.140597
1924 1 0.480541 0.170031 0.180093
1279 1 0.401492 0.199462 0.212105
5774 1 0.369574 0.137508 0.21146
1541 1 0.396495 0.157889 0.192703
4683 1 0.268337 0.47906 0.449984
392 1 0.447243 0.160692 0.168952
1889 1 0.448799 0.139994 0.210904
5913 1 0.471636 0.121327 0.492858
3452 1 0.0907424 0.211205 0.124096
9881 1 0.0456591 0.213208 0.0713092
1891 1 0.0376692 0.163167 0.0988623
187 1 0.125221 0.271021 0.0935924
9762 1 0.466823 0.281063 0.321862
9731 1 0.0490759 0.213722 0.127971
9710 1 0.0286058 0.296286 0.184833
8795 1 0.161398 0.498908 0.303393
11515 1 0.112586 0.262389 0.175869
10136 1 0.0710835 0.274339 0.173834
475 1 0.0699854 0.183135 0.141388
344 1 0.0298217 0.250448 0.188956
758 1 0.126261 0.174402 0.14009
1451 1 0.0499352 0.237993 0.15664
1516 1 0.112437 0.30563 0.123474
1934 1 0.071099 0.231906 0.191293
9610 1 0.0322378 0.271206 0.0908874
462 1 0.148297 0.244138 0.176721
8207 1 0.141305 0.149692 0.110189
9796 1 0.199994 0.215847 0.13571
688 1 0.170522 0.254812 0.142161
1887 1 0.0879391 0.241232 0.154072
1195 1 0.12538 0.217097 0.155026
3 1 0.0970216 0.248807 0.110911
32 1 0.133948 0.296885 0.152369
439 1 0.161352 0.229087 0.207969
9880 1 0.137573 0.304381 0.21465
1384 1 0.208194 0.258333 0.155419
651 1 0.207446 0.283901 0.0925602
312 1 0.128809 0.261867 0.134589
1561 1 0.134747 0.262766 0.208121
700 1 0.15526 0.286796 0.183699
2371 1 0.260284 0.219635 0.0640454
565 1 0.189352 0.290557 0.126241
3520 1 0.302945 0.238501 0.127033
9484 1 0.232287 0.282592 0.134446
238 1 0.327857 0.216009 0.214014
455 1 0.238004 0.247208 0.118688
1843 1 0.228226 0.225932 0.200614
890 1 0.243754 0.265511 0.179781
253 1 0.236635 0.223894 0.164536
1926 1 0.296155 0.296504 0.133126
1983 1 0.184178 0.260422 0.189084
54 1 0.215171 0.331064 0.179411
11 1 0.282254 0.28008 0.187265
112 1 0.208011 0.299782 0.159715
134 1 0.238901 0.304396 0.198283
1231 1 0.273785 0.23376 0.176249
717 1 0.269655 0.273533 0.148667
140 1 0.257842 0.306086 0.168312
1408 1 0.187574 0.248262 0.228796
1001 1 0.318621 0.219313 0.160528
504 1 0.382592 0.234225 0.0784428
1745 1 0.363294 0.215955 0.192403
3467 1 0.355676 0.280959 0.149434
581 1 0.310957 0.271324 0.161696
1716 1 0.3259 0.271774 0.124455
1581 1 0.370726 0.210369 0.152139
138 1 0.351305 0.322686 0.200994
270 1 0.338622 0.195646 0.135414
197 1 0.349265 0.242685 0.16135
1202 1 0.373443 0.291568 0.109955
1652 1 0.405138 0.271276 0.157869
1417 1 0.372753 0.225335 0.118183
1545 1 0.368654 0.257924 0.189528
2769 1 0.467226 0.234169 0.139513
76 1 0.428294 0.178716 0.0942165
211 1 0.415235 0.229383 0.144606
10213 1 0.491347 0.202802 0.119283
1072 1 0.43073 0.271003 0.107795
9547 1 0.397606 0.216662 0.17808
3655 1 0.410867 0.299669 0.122968
1359 1 0.43223 0.244152 0.1787
198 1 0.46066 0.260623 0.20447
48 1 0.442526 0.223172 0.212784
93 1 0.497983 0.251063 0.18145
11714 1 0.433158 0.202493 0.169995
1214 1 0.466238 0.229539 0.180123
111 1 0.455398 0.18446 0.201678
1026 1 0.404192 0.241869 0.206515
6724 1 0.338775 0.43736 0.474744
8291 1 0.0542694 0.379742 0.137539
9469 1 0.0514099 0.312618 0.146995
1453 1 0.0273884 0.336552 0.118136
10331 1 0.0294301 0.391157 0.0911798
8349 1 0.0683954 0.403226 0.168257
13274 1 0.0965981 0.336575 0.0846085
1343 1 0.0696821 0.391593 0.0906628
5440 1 0.128613 0.425329 0.252377
8754 1 0.468422 0.366524 0.0312506
89 1 0.00198564 0.32011 0.079979
4938 1 0.494341 0.0108196 0.294066
1729 1 0.0378035 0.383234 0.176397
1187 1 0.148824 0.293264 0.115413
1256 1 0.0984209 0.285391 0.209392
241 1 0.0859618 0.276088 0.14037
421 1 0.0867082 0.329982 0.14645
1907 1 0.13098 0.335469 0.167503
914 1 0.1766 0.31564 0.0965565
64 1 0.175118 0.321374 0.14974
272 1 0.205377 0.397538 0.118143
4067 1 0.222129 0.417238 0.151242
9912 1 0.102702 0.362889 0.154091
1592 1 0.160917 0.3681 0.117249
1038 1 0.0987738 0.299056 0.168295
1841 1 0.0671336 0.359582 0.167263
676 1 0.158222 0.335128 0.204004
682 1 0.261106 0.302696 0.0981065
1428 1 0.288314 0.336565 0.0956371
413 1 0.221747 0.323564 0.102111
2526 1 0.250112 0.42384 0.0824115
1169 1 0.216164 0.342031 0.143855
1816 1 0.251394 0.348732 0.165281
176 1 0.312337 0.314469 0.199558
434 1 0.184374 0.308949 0.193414
206 1 0.230899 0.382377 0.147223
1797 1 0.244872 0.353721 0.115261
745 1 0.270442 0.327598 0.136442
1708 1 0.256053 0.409292 0.122406
1573 1 0.190733 0.38937 0.157536
1890 1 0.269208 0.36934 0.0830518
480 1 0.279171 0.365217 0.138971
1337 1 0.229482 0.36684 0.0703938
1400 1 0.172661 0.420918 0.173581
1967 1 0.244348 0.400676 0.183715
1510 1 0.315905 0.304986 0.0978827
1464 1 0.437844 0.349545 0.0778788
669 1 0.356647 0.363236 0.11199
756 1 0.335935 0.312339 0.164379
382 1 0.382907 0.321794 0.134932
946 1 0.389904 0.361124 0.145294
331 1 0.342195 0.323837 0.116461
1794 1 0.348369 0.27936 0.0770717
600 1 0.352036 0.348234 0.155683
527 1 0.394851 0.319833 0.0893448
51 1 0.421812 0.346596 0.125242
1653 1 0.393717 0.398092 0.160479
5450 1 0.310379 0.338456 0.131764
189 1 0.354658 0.384113 0.172003
349 1 0.350365 0.369183 0.207414
1494 1 0.287794 0.338105 0.177087
1222 1 0.388698 0.379567 0.196159
10231 1 0.481227 0.302304 0.258114
9776 1 0.479926 0.361552 0.180669
3085 1 0.478035 0.29643 0.125478
1482 1 0.449354 0.345534 0.167093
720 1 0.444178 0.306585 0.136091
728 1 0.443945 0.2671 0.139994
663 1 0.417227 0.387575 0.132083
1252 1 0.449682 0.362396 0.213804
207 1 0.452386 0.369669 0.139284
155 1 0.416971 0.318943 0.166507
1772 1 0.443555 0.411988 0.162468
1600 1 0.454812 0.439726 0.18547
732 1 0.460625 0.327294 0.199454
873 1 0.395114 0.364775 0.10158
124 1 0.45836 0.335033 0.111506
791 1 0.44684 0.295412 0.173164
864 1 0.422062 0.332525 0.20834
2475 1 0.0559448 0.47438 0.480828
10097 1 0.130311 0.465712 0.148194
9565 1 0.0539981 0.463977 0.184195
4943 1 0.0804839 0.498806 0.137346
11127 1 0.025323 0.418971 0.147229
359 1 0.0479076 0.417259 0.111631
1718 1 0.0802424 0.428695 0.0911383
521 1 0.0432665 0.467518 0.148078
468 1 0.0516712 0.451196 0.0799754
301 1 0.107297 0.402524 0.159382
4409 1 0.223105 0.00230509 0.248653
2954 1 0.0688345 0.417791 0.0185809
1663 1 0.109638 0.433347 0.13754
4411 1 0.126243 0.461499 0.18917
8478 1 0.074208 0.406549 0.206516
13768 1 0.00927282 0.445439 0.1805
4670 1 0.062395 0.433833 0.144195
2367 1 0.455458 0.0238278 0.485183
4826 1 0.192233 0.481575 0.144566
1246 1 0.168052 0.405948 0.132138
1933 1 0.0832211 0.362393 0.118022
5724 1 0.104841 0.474782 0.115142
4935 1 0.163094 0.456715 0.165131
789 1 0.264632 0.465436 0.119027
12655 1 0.110938 0.409596 0.201401
53 1 0.0855135 0.405657 0.124668
161 1 0.14044 0.426172 0.113451
1714 1 0.127426 0.381591 0.128961
224 1 0.142133 0.432825 0.210848
13675 1 0.159047 0.457403 0.123145
13137 1 0.203216 0.481864 0.204807
1760 1 0.197272 0.441828 0.13756
12928 1 0.145189 0.383756 0.163527
5789 1 0.133485 0.428928 0.168801
5683 1 0.294966 0.440543 0.127205
2610 1 0.381288 0.421111 0.0184964
1793 1 0.215504 0.473643 0.113223
425 1 0.223404 0.432463 0.213601
397 1 0.313636 0.380362 0.165509
5816 1 0.239842 0.454198 0.186429
1452 1 0.262753 0.435436 0.157623
1805 1 0.295522 0.399006 0.00583527
1822 1 0.201808 0.451279 0.177713
5347 1 0.265007 0.448951 0.233243
1840 1 0.290616 0.40745 0.148764
1982 1 0.293867 0.472045 0.215789
1675 1 0.233596 0.468787 0.147951
1425 1 0.257366 0.491677 0.187336
217 1 0.303582 0.452246 0.1657
3294 1 0.333998 0.430841 0.178931
1277 1 0.356019 0.46396 0.159176
528 1 0.327374 0.456601 0.101046
109 1 0.383046 0.396442 0.116168
334 1 0.337491 0.389235 0.138614
760 1 0.326436 0.466412 0.191986
443 1 0.366678 0.421589 0.142273
1146 1 0.302095 0.446912 0.249896
5873 1 0.373433 0.419506 0.189316
366 1 0.388475 0.452878 0.169018
575 1 0.386471 0.475301 0.133295
626 1 0.302887 0.371809 0.211346
432 1 0.0562418 0.0443005 0.106761
815 1 0.381193 0.415399 0.228007
944 1 0.472308 0.45959 0.157701
8692 1 0.494691 0.0949083 0.209389
34 1 0.402929 0.429736 0.14029
4309 1 0.347254 0.454394 0.43644
355 1 0.463641 0.395972 0.194588
8867 1 0.474714 0.404374 0.139074
6028 1 0.427694 0.459121 0.0983305
1519 1 0.425411 0.471353 0.209576
1549 1 0.466092 0.440633 0.123112
1443 1 0.412736 0.426986 0.190585
931 1 0.428684 0.454978 0.161459
454 1 0.424899 0.391004 0.20439
2159 1 0.179145 0.360417 0.487111
7143 1 0.0788471 0.498491 0.292129
1789 1 0.471486 0.198693 0.154867
4284 1 0.47537 0.469758 0.208531
268 1 0.333391 0.0635661 0.493986
9270 1 0.0464834 0.026379 0.244382
12623 1 0.106578 0.0904317 0.200435
1102 1 0.0790681 0.0580889 0.214626
1839 1 0.0362137 0.019136 0.195825
10202 1 0.0181229 0.0641108 0.282738
12568 1 0.0612195 0.0598976 0.26493
379 1 0.314277 0.0796451 0.0115358
9520 1 0.0997663 0.0385377 0.249271
577 1 0.0870674 0.094078 0.279065
3392 1 0.396999 0.19447 0.0143614
8972 1 0.0372872 0.0686679 0.228982
262 1 0.0774453 0.00318892 0.234755
1628 1 0.0460853 0.0934977 0.259349
3240 1 0.0462719 0.494947 0.105524
2641 1 0.480155 0.202569 0.00574032
1229 1 0.139426 0.0711506 0.339416
9567 1 0.116951 0.0692074 0.274337
1056 1 0.144341 0.0423601 0.256767
9400 1 0.205735 0.0850718 0.257651
5064 1 0.159244 0.0916234 0.261839
5886 1 0.0872523 0.0803137 0.244923
1532 1 0.464837 0.328567 0.0452709
1825 1 0.177993 0.0571039 0.246412
420 1 0.187573 0.0189552 0.26636
488 1 0.118244 0.0107104 0.214842
1259 1 0.128537 0.050437 0.211032
1463 1 0.2271 0.00556378 0.209224
1980 1 0.145843 0.0555958 0.294708
158 1 0.196539 0.0754057 0.208262
918 1 0.191057 0.124569 0.268341
1626 1 0.125832 0.0872277 0.236554
879 1 0.186294 0.108864 0.229425
213 1 0.185021 0.0958677 0.293373
642 1 0.112704 0.0256603 0.286258
5511 1 0.297045 0.0130278 0.210217
4477 1 0.259292 0.0169687 0.23832
1415 1 0.182808 0.0588116 0.284612
1355 1 0.218366 0.0498223 0.231396
5472 1 0.237378 0.0505145 0.194496
904 1 0.304192 0.0811922 0.191599
1904 1 0.262758 0.0849435 0.251896
4742 1 0.264295 0.0436151 0.269742
4375 1 0.269305 0.0506725 0.22237
333 1 0.0181142 0.183844 0.0565762
1013 1 0.234974 0.0807549 0.22274
360 1 0.275181 0.0891015 0.217419
5465 1 0.298564 0.0652088 0.24505
982 1 0.290987 0.0740647 0.286138
4709 1 0.288525 0.0231956 0.290312
955 1 0.238574 0.0700741 0.278348