LAMMPS data file via write_data, version 27 Jun 2024, timestep = 10000, units = real

16384 atoms
1 atom types

0 80.7644 xlo xhi
0 80.7644 ylo yhi
0 80.7644 zlo zhi

Masses

1 1

Atoms # full

635 0 1 0 9.247806242008503 0.039031473344753154 3.9929441186582535 0 0 0
861 0 1 0 18.873352884702413 8.473522788259046 1.6908690176918377 0 0 0
3381 0 1 0 0.5674254514760261 7.609975380652639 7.364674429803363 0 0 0
1688 0 1 0 5.0606265671374 2.1131636535422365 6.045693875151245 0 0 0
3120 0 1 0 34.27563523631965 31.339321454077194 1.4297547337336838 0 0 0
10192 0 1 0 2.599454878232395 3.8890998684573486 0.6128525532686439 0 0 0
13179 0 1 0 6.638440870471872 1.3239719800057126 8.725740160989142 0 0 0
580 0 1 0 2.1769439592053064 5.934777359798561 2.9089744096831884 0 0 0
1682 0 1 0 13.013023967653538 1.7521983369826233 35.614367006103535 0 0 0
3581 0 1 0 32.57778012532826 2.5033072693121743 39.72383005285464 0 0 0
1533 0 1 0 16.115271465829757 28.182226562574016 0.7333371598989965 0 0 0
10078 0 1 0 3.8219187520047937 5.371036801880764 5.741654084276301 0 0 0
1397 0 1 0 1.8511332010688484 2.522214327892289 7.405722722350024 0 0 0
674 0 1 0 5.774351624157351 3.16687232588499 1.7602098606941432 0 0 0
5077 0 1 0 3.838962247123668 39.19706480237861 32.04432974782572 0 0 0
1515 0 1 0 2.644614231353233 2.5909232701002094 3.9425270252744875 0 0 0
14203 0 1 0 31.589758624586537 1.5857713670029567 27.553176076014577 0 0 0
9956 0 1 0 40.073739064447864 23.216211774055456 29.158352275900864 0 0 0
4211 0 1 0 6.6881341156905965 39.89259453207552 3.422286664369394 0 0 0
1778 0 1 0 39.59264560882704 4.724213491802149 31.832905154299414 0 0 0
8617 0 1 0 1.148013974263301 28.694627258913723 7.115441532586922 0 0 0
4819 0 1 0 40.22958483613632 36.467372004658486 32.604439644785586 0 0 0
5185 0 1 0 7.878536590679335 3.037979294357307 11.492392889332526 0 0 0
5165 0 1 0 11.009360320892121 3.7880766116467446 3.5204909972192358 0 0 0
1403 0 1 0 10.790506205774209 6.024647405583141 5.8151458147001795 0 0 0
721 0 1 0 8.718120094802886 8.02940064958435 1.9627241312056471 0 0 0
3771 0 1 0 14.42704738912505 8.854197528842871 5.527650299134567 0 0 0
5126 0 1 0 18.04337794008332 9.289692617754856 5.693408865571335 0 0 0
1128 0 1 0 7.128934103617027 4.908625635563237 7.133622378371909 0 0 0
1349 0 1 0 13.106805127640117 5.638581243503517 7.898414126356088 0 0 0
3446 0 1 0 5.807266688704299 9.981350135520618 2.1490870328942666 0 0 0
1530 0 1 0 13.87525366101584 5.59993747131664 4.558651553165158 0 0 0
264 0 1 0 23.22335344056213 1.9152376413912737 36.14463827328517 0 0 0
6463 0 1 0 14.098639870455791 5.046003995627101 11.271275874681049 0 0 0
630 0 1 0 16.84086755406723 6.633614399663831 6.864776667323563 0 0 0
8720 0 1 0 8.933790377994395 35.00031484726626 2.7284642911606407 0 0 0
9359 0 1 0 38.930082510016476 30.01749097366706 8.666166596598407 0 0 0
7887 0 1 0 6.7528447789326735 6.001849235756134 3.823969375778951 0 0 0
204 0 1 0 14.012398675724318 2.2116880508886183 4.177944729129454 0 0 0
2700 0 1 0 11.462423879407309 6.737674256563318 2.666452448681413 0 0 0
6077 0 1 0 15.439406843475135 1.5621725387000012 6.765242595313223 0 0 0
3981 0 1 0 19.46427634663935 1.997685078905859 1.958543013636002 0 0 0
5170 0 1 0 18.40973593130469 12.30637632102804 5.636055988250188 0 0 0
731 0 1 0 16.609495196972187 7.251885364987004 3.69753346892674 0 0 0
7875 0 1 0 17.052200150071805 4.424470533268288 9.032953263459486 0 0 0
5884 0 1 0 25.05618460533226 39.20029303170894 37.87217217693656 0 0 0
1986 0 1 0 18.177275169397166 0.5853528709340384 4.810046987903496 0 0 0
1984 0 1 0 19.92749093285081 2.8161329080242807 6.38773349156357 0 0 0
14027 0 1 0 39.18666057466369 33.78243429858961 33.67395068738112 0 0 0
1977 0 1 0 23.226908178985962 0.8353805689863406 1.4311966564523348 0 0 0
1419 0 1 0 23.086854757792246 3.464636362408167 3.3101812348862882 0 0 0
4430 0 1 0 11.856347163661757 39.9427268472291 9.091143719735678 0 0 0
4292 0 1 0 32.277863376977145 12.388794880352584 0.22407505320513468 0 0 0
5856 0 1 0 23.95419024742779 2.180336123321942 20.044781838773464 0 0 0
14965 0 1 0 1.3945347517145201 34.51205726353688 6.81168821480585 0 0 0
2263 0 1 0 31.690871211595592 39.89870255851975 0.551895419056776 0 0 0
543 0 1 0 40.07938050708652 18.543414974408947 35.52932998716189 0 0 0
6204 0 1 0 26.077320272750498 2.1036551294552646 6.192985816156531 0 0 0
459 0 1 0 26.317092264216623 5.567355048919951 4.786487911737984 0 0 0
2461 0 1 0 29.766754451516853 7.483144894634686 4.176764793371426 0 0 0
8555 0 1 0 3.8166146707688213 24.607048677271532 20.97474687712239 0 0 0
4584 0 1 0 6.018667364808497 40.35779572644582 29.802615745260663 0 0 0
1312 0 1 0 29.266139081880482 3.176842116605755 4.793480932065966 0 0 0
1672 0 1 0 14.3540226960467 32.83115278533392 2.011862195523624 0 0 0
5057 0 1 0 12.154576645549142 39.82253846273889 13.795348818234178 0 0 0
1116 0 1 0 31.382985919883648 4.927219697779442 2.8145968674095343 0 0 0
5309 0 1 0 39.7808697940224 39.47798579290156 13.883904462983539 0 0 0
8385 0 1 0 12.241181968368103 13.456515758216737 39.53991167352199 0 0 0
55 0 1 0 26.036313351923315 3.2160170910816523 2.215345374482704 0 0 0
7638 0 1 0 25.269024572881793 7.239414315239636 7.167198932592943 0 0 0
897 0 1 0 17.218317563779152 31.680956942813214 1.0541960576281404 0 0 0
602 0 1 0 29.274419625111538 1.490103688818769 7.789656876352489 0 0 0
11864 0 1 0 40.25294250718646 21.162646586009753 2.8000061492053683 0 0 0
11287 0 1 0 35.47257627311261 2.6987457786724214 6.718824645469765 0 0 0
1250 0 1 0 32.59923456725229 3.816682124875439 5.79028321831835 0 0 0
9419 0 1 0 36.32882223319755 1.1234576727531123 1.9479465804156826 0 0 0
5999 0 1 0 34.13325894000495 3.2549742285882926 3.2364340990604954 0 0 0
5444 0 1 0 33.73487930297489 11.44217715011261 5.9483879709592085 0 0 0
1188 0 1 0 28.322421809168283 5.824896712537958 1.9598795032821485 0 0 0
11323 0 1 0 37.2986031268127 38.55046452813279 39.0350906754395 0 0 0
8316 0 1 0 4.680047064711598 25.302467281173918 2.6050442138698706 0 0 0
66 0 1 0 35.11261536641077 6.019131423928579 5.033366405900554 0 0 0
4419 0 1 0 38.13963309866298 4.962695927118737 6.779562361499945 0 0 0
4096 0 1 0 28.92598120518734 0.2502048278052752 13.068523308115104 0 0 0
14066 0 1 0 1.0336124187566555 38.415128190186344 37.6829637239798 0 0 0
1759 0 1 0 40.10374096632332 6.477280152672908 34.3193199733267 0 0 0
3738 0 1 0 9.877948088950774 33.32947470792114 0.15375048786021014 0 0 0
4672 0 1 0 19.29002824263805 37.10847808865918 37.881078228358994 0 0 0
1043 0 1 0 6.997927689731182 19.025573651815954 3.0107884033087786 0 0 0
8926 0 1 0 0.049104538274676944 8.78126817988864 3.466960206446429 0 0 0
1542 0 1 0 4.999921382740807 8.623512734563949 4.937321276186239 0 0 0
621 0 1 0 8.159279154864382 12.182319211683208 3.5977272040710995 0 0 0
725 0 1 0 37.22093864726877 0.47279115301768204 20.70089359450793 0 0 0
1764 0 1 0 4.510394735048195 11.638264649139492 5.111826243807448 0 0 0
10613 0 1 0 6.036446708234112 13.458809009047663 7.209979776192292 0 0 0
8857 0 1 0 5.448001664516917 14.697736629667807 4.070311830192173 0 0 0
5213 0 1 0 28.430950841500277 0.8462974777009417 2.047046556670378 0 0 0
11048 0 1 0 7.640305081750408 15.038462432895386 1.4993718338107385 0 0 0
5111 0 1 0 19.285231004658137 0.037185091816610436 22.882388469318062 0 0 0
3151 0 1 0 1.8802966467460567 18.895572340640197 38.61712883287528 0 0 0
1411 0 1 0 37.1531090968106 22.562190414666542 38.860449491646456 0 0 0
1059 0 1 0 10.26720545886377 36.766308140131045 0.46887166353786447 0 0 0
8311 0 1 0 10.804848745093603 25.826030629609715 0.1865696472472807 0 0 0
7720 0 1 0 9.289308708588216 38.250228144793 3.410867494577716 0 0 0
3884 0 1 0 8.07354749483843 7.9972336932107195 8.389854381916475 0 0 0
4585 0 1 0 29.90953685315187 39.66578319015235 25.87848139399871 0 0 0
2377 0 1 0 8.6033607662629 10.996865834318728 7.595651272306642 0 0 0
759 0 1 0 10.862043190918834 12.61941888026785 2.417795357064165 0 0 0
1568 0 1 0 15.613328330168082 9.84476499965912 2.4275487143782297 0 0 0
8716 0 1 0 8.304214790308263 9.054742578626369 4.839376502653125 0 0 0
837 0 1 0 8.527086766487344 15.418591826031838 4.516738581181642 0 0 0
284 0 1 0 11.864157265506497 9.881550753085632 3.357798884028106 0 0 0
1818 0 1 0 14.079173858456153 12.46534547176366 3.185553893923108 0 0 0
1873 0 1 0 10.464320132331427 12.95233563144313 5.8791968227113465 0 0 0
1009 0 1 0 11.285385259108606 9.176428222960322 6.987121847199155 0 0 0
8848 0 1 0 1.8025001497086928 20.081048956703746 4.835882900813125 0 0 0
3052 0 1 0 18.33948523214894 11.825482734904014 2.369617530506561 0 0 0
2384 0 1 0 16.88941050406218 9.31508909226454 8.49176605535664 0 0 0
8548 0 1 0 39.78801471520863 7.968708615245775 10.641660306111394 0 0 0
799 0 1 0 15.413059431760843 13.928502238180116 5.872720576981063 0 0 0
8536 0 1 0 13.307233777210016 11.610831847395376 6.412451279421588 0 0 0
2213 0 1 0 12.644205743250774 13.850367916046812 0.37685582101454645 0 0 0
9755 0 1 0 0.3666897439022246 21.623332858857356 2.6110449656501653 0 0 0
2763 0 1 0 18.693066786586577 17.757811870410407 7.115617080904833 0 0 0
7362 0 1 0 4.649058206106878 7.096394529360151 1.1479533617230917 0 0 0
1272 0 1 0 10.070977475993175 39.12676700934697 17.628044924119266 0 0 0
1956 0 1 0 39.32501216252418 39.528601272185355 36.51335856559092 0 0 0
3604 0 1 0 15.927689372002003 14.38927715010677 1.5396675317598618 0 0 0
4976 0 1 0 3.0088184345401032 39.5220093726712 26.19522911160378 0 0 0
1378 0 1 0 19.52590940057055 15.49353500174934 1.4663544933608939 0 0 0
258 0 1 0 20.730681930752375 6.24663355835664 0.2401134813487467 0 0 0
707 0 1 0 21.11506413468273 14.213213776195456 3.7899919912468 0 0 0
314 0 1 0 18.419149318698775 15.4659843520582 4.625042196684908 0 0 0
1234 0 1 0 21.435036873838918 14.62418865651349 7.523711022820277 0 0 0
1030 0 1 0 0.9937539048169018 24.805514306660683 11.900601321565478 0 0 0
4118 0 1 0 22.168278309524272 38.59908190184358 12.974845767036802 0 0 0
1857 0 1 0 15.631075498295473 20.071294284183242 5.6683243942481205 0 0 0
1754 0 1 0 20.84389389152439 10.706453110515497 0.23299383668961884 0 0 0
13252 0 1 0 0.7825694218334879 5.076257197690502 8.874775293702093 0 0 0
7662 0 1 0 28.798496434661164 11.773072005487323 3.74539009770943 0 0 0
1898 0 1 0 22.94022559959116 6.577383967668724 3.083644342845034 0 0 0
692 0 1 0 26.286204721801322 12.214471421003452 8.504400639349596 0 0 0
6630 0 1 0 25.452536610553153 8.529041790896596 3.2849232676354787 0 0 0
1412 0 1 0 26.36278018462266 14.611473426507398 0.8955178111233478 0 0 0
7480 0 1 0 25.989032792694356 11.654262974681261 2.2718245389031635 0 0 0
37 0 1 0 31.9876734541935 7.239419496746683 6.553643863499254 0 0 0
1881 0 1 0 24.588229675511737 10.711861926683003 5.716435923995711 0 0 0
696 0 1 0 28.204339323686625 16.564362681923612 5.683222240681612 0 0 0
173 0 1 0 30.272118942285672 14.446344349899764 4.390094418703756 0 0 0
5833 0 1 0 27.53073463215098 9.085781897248587 5.845205976684198 0 0 0
1313 0 1 0 26.72225472851676 14.195004823330333 4.145169883202878 0 0 0
2696 0 1 0 30.29269801296852 17.91623511207363 2.960995370039038 0 0 0
271 0 1 0 29.582631827048125 11.582510238091114 0.4400170241679003 0 0 0
1176 0 1 0 20.92462665238367 9.72550840992347 3.692977717383275 0 0 0
110 0 1 0 28.367372246087548 12.6080957734899 6.495369550120578 0 0 0
10144 0 1 0 2.283616074167655 28.894770839741042 32.67493702633027 0 0 0
3660 0 1 0 37.010963508531184 3.7457615623899208 4.190985148548945 0 0 0
12965 0 1 0 0.875677515547825 39.6393574591552 10.619963225851508 0 0 0
5911 0 1 0 33.21408675930018 7.953436422573194 3.0313940755126025 0 0 0
11084 0 1 0 34.89303787831231 10.997317103053007 2.5361488680672215 0 0 0
1886 0 1 0 32.85542928690519 13.56464425555416 2.9530689677410624 0 0 0
9869 0 1 0 36.69445654267018 13.452856851557677 4.820474083680562 0 0 0
549 0 1 0 31.38340718800783 10.417589684214665 3.0606129038779217 0 0 0
82 0 1 0 30.665081552249198 10.123995931691713 6.45411076953482 0 0 0
1101 0 1 0 21.82309224634672 0.784455879450573 4.776640434721835 0 0 0
5696 0 1 0 23.120574168804392 0.8553012517576037 33.30217286465894 0 0 0
12542 0 1 0 22.340417572752262 38.88208637819287 6.741132503280102 0 0 0
3179 0 1 0 35.35844947445832 8.59018438169919 7.092555687492323 0 0 0
2255 0 1 0 14.233378610772805 2.4881551984344528 9.614163026495765 0 0 0
8266 0 1 0 37.854361677577316 8.906570490156538 5.228271572712499 0 0 0
10090 0 1 0 38.082101480909984 10.710423589107352 1.1555919012310008 0 0 0
11348 0 1 0 33.93929960644658 16.26257394116511 3.192293998897708 0 0 0
1656 0 1 0 1.3998204713858553 16.06896890262437 7.8635303680377 0 0 0
1743 0 1 0 3.085463238325812 16.391244476657654 2.166582505938206 0 0 0
1227 0 1 0 9.34269968405745 14.782310784108146 7.861495219740201 0 0 0
9627 0 1 0 3.9407576836011757 21.976261333466965 10.659048928561615 0 0 0
1617 0 1 0 7.20329846373412 17.418224229885258 6.623497553399037 0 0 0
2826 0 1 0 8.178331320273683 20.7850099990434 5.536739697548544 0 0 0
9322 0 1 0 8.842466506638694 1.8351978289271438 6.835041935353077 0 0 0
210 0 1 0 4.570057858304656 19.961038496480953 8.605303476960245 0 0 0
2291 0 1 0 10.118660456500608 18.117671150789313 3.6732944568939687 0 0 0
3528 0 1 0 17.19699239235859 16.677926221992955 40.36967637493224 0 0 0
2036 0 1 0 4.1200565940718095 20.16572013554323 2.5045834842260852 0 0 0
63 0 1 0 5.701405365185429 22.9198557655438 3.962045525434671 0 0 0
7037 0 1 0 12.662565404608507 38.147129346536964 4.430386297797354 0 0 0
817 0 1 0 0.2794664541466751 34.288300129783224 24.01360214925152 0 0 0
8190 0 1 0 2.590305205991147 23.366240653951248 4.709456892848785 0 0 0
9768 0 1 0 2.332584080393912 37.92225070583545 29.66712950989931 0 0 0
9761 0 1 0 8.953809739550797 19.53459852929846 0.15153865173832926 0 0 0
2502 0 1 0 15.369452354587843 16.872954359631056 4.768161480552994 0 0 0
1340 0 1 0 9.276068390138281 22.213026131502158 3.1122402911369558 0 0 0
3365 0 1 0 14.036741350051111 17.017772501449453 1.7479264543622945 0 0 0
1385 0 1 0 13.849549517634356 21.849830303720616 7.5208105529291815 0 0 0
752 0 1 0 10.242360555047648 17.92895878329857 7.8115647142511975 0 0 0
290 0 1 0 12.592488926451695 15.43741840912217 4.297239962244147 0 0 0
942 0 1 0 12.82148464183318 18.259388771514047 9.555851387458537 0 0 0
4023 0 1 0 20.366544551471957 0.8285521841339052 34.91436953440437 0 0 0
1605 0 1 0 12.12347065974725 20.95186673210905 3.9746684318869723 0 0 0
308 0 1 0 17.038802185214198 17.286456591974698 0.8433410209460636 0 0 0
500 0 1 0 13.005076197128252 18.49388259378915 6.223730930103361 0 0 0
119 0 1 0 12.245164184313001 15.091383496294366 7.525701932415916 0 0 0
8964 0 1 0 10.862732513524481 16.23740473598056 1.2401050923568482 0 0 0
8515 0 1 0 0.0696548153380056 12.726574129292304 8.737017296181577 0 0 0
3864 0 1 0 21.470697501046857 17.651997957583994 1.991222810300416 0 0 0
1245 0 1 0 23.063460976627628 12.398216776643528 2.2007430389451597 0 0 0
4212 0 1 0 25.144370035545453 1.1600907899592514 12.545755687141815 0 0 0
1063 0 1 0 15.843858273118762 20.289679557002817 9.05781427740106 0 0 0
2479 0 1 0 19.8456465269037 21.824325955316077 3.5267690915639003 0 0 0
3669 0 1 0 22.668192610706573 22.01247585473043 8.42953807664106 0 0 0
1487 0 1 0 24.7899988985051 20.58477999208836 6.702570264923775 0 0 0
3351 0 1 0 22.59429658324087 22.956918112784702 5.385820030267388 0 0 0
2967 0 1 0 23.92116198547664 15.468364305014395 3.1041769453330548 0 0 0
1559 0 1 0 2.9499371646288672 7.836447845460003 16.246957263874425 0 0 0
2969 0 1 0 26.690279029749647 20.96473832759632 2.3508679899837817 0 0 0
3542 0 1 0 18.017495395895143 18.743884651213 3.666823258498449 0 0 0
943 0 1 0 16.693267779547718 23.40872257458276 2.196276910092768 0 0 0
1827 0 1 0 23.76268100762694 20.32884821021154 3.541422319401101 0 0 0
2215 0 1 0 21.68835609050359 18.732090692631225 8.021187927397117 0 0 0
1922 0 1 0 19.774142831396887 21.6604249008182 6.596736349529814 0 0 0
1387 0 1 0 15.04099445351702 20.46380317182551 2.0537690775878263 0 0 0
5316 0 1 0 21.955757475899283 39.24761386524603 3.5217165950148384 0 0 0
72 0 1 0 27.495863891070893 19.44195993426311 5.1713568818872035 0 0 0
1785 0 1 0 30.25434211853505 21.091085331974362 4.308140320982894 0 0 0
231 0 1 0 23.68576545893231 16.323530711358 9.010429465920136 0 0 0
3633 0 1 0 7.895673910869206 3.7080569569010597 31.473671221035787 0 0 0
1032 0 1 0 32.20709061178034 20.287661914075876 9.39232972286839 0 0 0
452 0 1 0 28.922155289641495 20.80683393724223 8.500386892233225 0 0 0
497 0 1 0 34.299061597662565 25.49068271231418 4.456435938955761 0 0 0
151 0 1 0 27.165083062503374 24.022397408775813 1.2356958452747222 0 0 0
1160 0 1 0 27.122424695949253 18.19425774055185 8.759635531716745 0 0 0
778 0 1 0 29.609428545048992 24.09174413854475 3.9299271249480903 0 0 0
1395 0 1 0 25.22020334845231 17.48916240204193 6.131786565062463 0 0 0
5996 0 1 0 7.43170294662255 37.258216724990156 11.985336205191304 0 0 0
4507 0 1 0 34.15345959338625 0.11569388265832302 27.96768717115282 0 0 0
2222 0 1 0 27.00861449764967 17.55692403372414 2.68778071470696 0 0 0
2336 0 1 0 29.519526571439357 22.106740515735574 1.0704208725885782 0 0 0
8890 0 1 0 36.735164099177375 21.37845738141216 1.8241340423486023 0 0 0
8401 0 1 0 2.9770618662186608 0.793532742845825 1.0267847469282914 0 0 0
1457 0 1 0 38.54054507354169 13.518343975140754 8.079998273554164 0 0 0
9426 0 1 0 32.682067757715366 16.13655332362301 6.010061600012809 0 0 0
372 0 1 0 34.07590841466336 19.224484063700906 6.284169708137932 0 0 0
1725 0 1 0 32.30016840409612 23.151679098368845 2.398753482167334 0 0 0
525 0 1 0 33.69851255892455 20.20204976039588 2.6161075262422178 0 0 0
9778 0 1 0 35.88960826593062 17.392209707906904 8.797467795791544 0 0 0
16257 0 1 0 3.7025867730649518 39.419518336147256 35.94667833147353 0 0 0
1744 0 1 0 40.20928143180725 14.933130330228208 27.43456554377096 0 0 0
2487 0 1 0 38.33611914114682 19.438701928106457 4.906524198649523 0 0 0
606 0 1 0 34.86911292759704 28.297933751719363 2.8147906600292836 0 0 0
3736 0 1 0 38.77721673403495 23.749672951344323 4.3978293821939864 0 0 0
2171 0 1 0 40.313966897393186 22.03469148226393 6.620207261211583 0 0 0
2464 0 1 0 6.922838957575003 15.597683708192008 39.871291809295464 0 0 0
13554 0 1 0 38.59580695121514 15.85795954031037 3.4651195418714393 0 0 0
5638 0 1 0 7.184105431614737 38.45620992199201 0.40099067776833885 0 0 0
1776 0 1 0 36.21842251080136 16.744062787100763 5.622780263042585 0 0 0
5245 0 1 0 37.68263294316994 38.87236041430167 0.37161993933766324 0 0 0
11950 0 1 0 2.161609582984056 26.957108187277203 4.467383264202902 0 0 0
2453 0 1 0 7.944864498501122 24.913549051399606 1.9002409379570127 0 0 0
14263 0 1 0 2.450603286153399 40.374259062695415 22.401614113962513 0 0 0
1447 0 1 0 4.493015004250178 28.8656036151359 3.0784424216433797 0 0 0
737 0 1 0 6.9074937830848855 30.938020838175362 1.8021653037464598 0 0 0
975 0 1 0 7.8767065450215945 27.76477018117665 3.074925631379801 0 0 0
2472 0 1 0 12.646989411750978 9.632202190700026 0.5020096985237471 0 0 0
1819 0 1 0 9.8878330937235 30.199876113979073 0.6135063063473173 0 0 0
9310 0 1 0 5.046728461282683 25.714377984578228 5.633003582826349 0 0 0
2353 0 1 0 4.575919508761248 20.232570652013408 5.617165038587699 0 0 0
2667 0 1 0 8.710623976126904 24.55317635552711 5.620891986124352 0 0 0
1683 0 1 0 4.460336605184808 28.694526150615133 6.843363538779504 0 0 0
450 0 1 0 6.021309282534023 22.949040686853298 6.898291547102655 0 0 0
1552 0 1 0 6.973119064446878 30.06386171902985 4.737497608855307 0 0 0
7860 0 1 0 17.084519998716228 3.576263905598084 5.25595766538263 0 0 0
8880 0 1 0 30.41782385195115 7.8841230438033305 0.503953880807501 0 0 0
8179 0 1 0 3.376738995754629 31.891697099907702 2.5685539786001934 0 0 0
9999 0 1 0 38.02485236049733 20.804828323714744 8.880066214839035 0 0 0
9207 0 1 0 1.4801748668424342 15.512957661199202 24.34104686042761 0 0 0
1492 0 1 0 11.064604751487362 26.036881477489075 7.4609825873010145 0 0 0
2998 0 1 0 10.877065671177272 25.67134727966277 3.473596594507821 0 0 0
9347 0 1 0 10.31256490309159 29.1363196195611 4.188127301926947 0 0 0
2961 0 1 0 13.699547660367971 1.9033168609662356 0.7432010380517565 0 0 0
384 0 1 0 11.902756227325217 23.795475494875898 5.461882554418215 0 0 0
7141 0 1 0 34.25443553024266 0.20879201425698327 4.283307801895564 0 0 0
994 0 1 0 13.039586690990223 28.582293825140184 6.408176845123004 0 0 0
310 0 1 0 17.737360080457844 5.141087308894276 1.6489669644985945 0 0 0
1655 0 1 0 15.731520757576037 31.249757085224502 6.654582868757754 0 0 0
1316 0 1 0 13.130530719781719 28.91365541336502 2.957350874056428 0 0 0
736 0 1 0 12.212713809901633 31.901238605757413 7.477971838363411 0 0 0
614 0 1 0 9.156184993739553 30.347574615769286 7.3549971261083735 0 0 0
3728 0 1 0 11.849290831934475 19.87356147511284 0.935864996892337 0 0 0
1936 0 1 0 16.27080706096589 27.184829029426844 5.531363612287451 0 0 0
9987 0 1 0 16.556177561423155 28.783277095280223 8.521663550069645 0 0 0
753 0 1 0 10.654029145459122 27.297356673657596 10.253326607776478 0 0 0
1946 0 1 0 14.855368065681885 23.258473899792325 4.697923572463432 0 0 0
9099 0 1 0 6.2260382875718445 39.694784165373086 26.94855500411471 0 0 0
988 0 1 0 16.23655694963586 29.892456462271905 3.417893054244608 0 0 0
427 0 1 0 18.552453076621685 24.301503540653975 5.4047722464584 0 0 0
8912 0 1 0 17.73732814430909 26.67050796895667 2.928396037276233 0 0 0
939 0 1 0 25.47153429869841 23.154533007188114 4.152264049405746 0 0 0
990 0 1 0 22.899400052493174 29.616784585013335 3.929675768696956 0 0 0
1475 0 1 0 26.754086512020532 26.429305807892185 3.3871295978704272 0 0 0
1566 0 1 0 20.415073493184895 32.73974730720298 1.0017280130808353 0 0 0
1973 0 1 0 38.487607206587526 32.36528635629284 4.588637439844636 0 0 0
633 0 1 0 26.315016776653728 29.04004334458685 5.190083236170833 0 0 0
2373 0 1 0 21.79753768080112 26.803582140441122 2.2371508478809243 0 0 0
8456 0 1 0 6.734068326945397 38.50360165345069 6.275550476848273 0 0 0
1953 0 1 0 20.39259962468293 26.819774199039546 5.642719358743259 0 0 0
9570 0 1 0 8.226500894310853 0.6920174800534665 32.749292546712034 0 0 0
829 0 1 0 0.3868052978114998 2.297676174385332 37.607024579232736 0 0 0
885 0 1 0 14.305014365662956 25.76047916513094 2.5618101471798362 0 0 0
3533 0 1 0 1.5476355120913066 27.1509047784839 1.2604241747861387 0 0 0
3057 0 1 0 33.43914230080626 33.7043744686774 3.5987790253744585 0 0 0
634 0 1 0 27.35044591740019 32.00909834387691 4.450730457023131 0 0 0
3802 0 1 0 25.526320262862853 29.637648833460172 2.2774229197941414 0 0 0
2129 0 1 0 28.81637719986336 29.68217477271148 2.006209900562987 0 0 0
254 0 1 0 24.218511944847084 26.289468449079436 4.92751350648128 0 0 0
3162 0 1 0 28.76998801295188 26.332952907381696 6.187576576445246 0 0 0
1989 0 1 0 29.492698748488284 29.55042868403951 5.792075793592382 0 0 0
702 0 1 0 19.125679465814166 28.823997761788053 1.0421276172417304 0 0 0
1668 0 1 0 31.83670641803994 30.662208274613487 3.5872541889335583 0 0 0
1016 0 1 0 32.933182567084806 22.409265374769205 6.3292820941761985 0 0 0
3541 0 1 0 25.845702868595875 30.088886690294544 8.070304978813732 0 0 0
411 0 1 0 30.903204988843584 26.865504421313894 2.590566524991931 0 0 0
323 0 1 0 29.661773751495858 40.311271402705735 22.590718704716263 0 0 0
733 0 1 0 28.306185397495305 13.772802650164353 40.15496088374481 0 0 0
935 0 1 0 15.847477071986063 0.9515197011734878 11.898112313341375 0 0 0
3948 0 1 0 33.39265530575374 26.00253806618221 0.91582919657625 0 0 0
3032 0 1 0 38.74681457765835 28.554666559403923 5.644578980203176 0 0 0
18 0 1 0 32.16335842365742 28.112291072731715 5.3509512103310515 0 0 0
116 0 1 0 36.54348698781196 24.041346150144008 7.197180195124013 0 0 0
6000 0 1 0 35.52748829583882 31.1684487533987 4.841083490310558 0 0 0
1109 0 1 0 23.183942833212548 8.795550614548628 0.23714454962445994 0 0 0
8870 0 1 0 37.717738237388616 27.250578802745423 0.38374786011796375 0 0 0
12748 0 1 0 0.6395048836634141 38.80730547643828 13.652767126455206 0 0 0
10139 0 1 0 39.08265467209573 25.78798295822929 6.959469174251974 0 0 0
2236 0 1 0 37.67878846115902 33.05745569104815 7.846027745539889 0 0 0
3008 0 1 0 36.02978630163876 24.201731682897762 1.857150533412746 0 0 0
8458 0 1 0 39.25620949944274 29.559321696768865 28.18968677297534 0 0 0
5533 0 1 0 22.89009316520496 38.06414434238767 0.24744448244675937 0 0 0
1332 0 1 0 36.04219357973277 21.88870712962492 5.034110424432165 0 0 0
958 0 1 0 35.77700804376154 30.760552100036442 8.35382820011431 0 0 0
8816 0 1 0 0.738408493926989 32.91400411949953 3.980555929194633 0 0 0
8793 0 1 0 3.457672409767727 4.878103804409336 32.663894535020354 0 0 0
446 0 1 0 2.9797368138838967 35.33564926819608 2.9358759260323586 0 0 0
1649 0 1 0 9.218022836958152 33.421770882681734 7.089851850715783 0 0 0
986 0 1 0 7.331950382651631 33.58913048625753 4.765901386226334 0 0 0
3400 0 1 0 3.7364782193069086 38.379000538431 1.5944432222970366 0 0 0
9427 0 1 0 40.29899870104553 18.19670175171894 2.185246957474855 0 0 0
5172 0 1 0 8.900946896248136 36.30679603217699 5.842623006579186 0 0 0
7776 0 1 0 11.614383294571356 36.995956631515355 7.196039093510659 0 0 0
4725 0 1 0 25.36450983054337 0.3354029169294614 29.690601781736135 0 0 0
26 0 1 0 38.63960863327298 11.942498012418579 33.53503370983368 0 0 0
10741 0 1 0 40.28214288392829 8.451325432701802 1.9259954032229556 0 0 0
13097 0 1 0 6.061434025331386 36.38141101900401 3.4226839664983335 0 0 0
4762 0 1 0 4.150661685480496 33.280656864246545 5.256841522298437 0 0 0
748 0 1 0 5.424147891042982 36.84207688324308 9.399656631097363 0 0 0
4080 0 1 0 29.32411645577631 0.22744972074848488 33.6056658777808 0 0 0
1952 0 1 0 39.226543844286425 40.01558479970063 25.522309250154564 0 0 0
1011 0 1 0 11.774939781623342 4.475922126258461 0.19348641579141834 0 0 0
9129 0 1 0 8.193116299532976 29.117459919320314 38.67593063181146 0 0 0
6323 0 1 0 16.746463723123092 35.173888178481434 2.4784380800731256 0 0 0
1940 0 1 0 13.168392265667416 31.596552743917787 4.60530802211954 0 0 0
8116 0 1 0 14.782289435083115 37.092451002386106 0.19448027043904395 0 0 0
13657 0 1 0 9.756757249097413 32.36208146952285 3.1609809812422185 0 0 0
4617 0 1 0 11.85204297368199 34.45746975133833 5.419092919421681 0 0 0
12843 0 1 0 31.45443318865961 0.8702598445660314 21.350327256059447 0 0 0
2123 0 1 0 12.545898577200463 35.678639032035754 2.1134280996339414 0 0 0
782 0 1 0 15.092679106280265 34.047334148226405 5.014839227873442 0 0 0
5348 0 1 0 14.497038166963524 34.52139148700735 7.981940362148359 0 0 0
751 0 1 0 1.6263996884969303 8.07177545877902 36.646071222577284 0 0 0
191 0 1 0 39.630346437150706 1.6635138326767238 17.47217097242694 0 0 0
532 0 1 0 38.207858895640406 13.704949588803885 24.791840459870485 0 0 0
1341 0 1 0 18.281866952628594 0.636772039854296 8.708247378665268 0 0 0
4903 0 1 0 14.332278058236136 38.80840592231353 7.496036071133481 0 0 0
6348 0 1 0 17.545571279239184 35.43608412780317 7.458129329400277 0 0 0
2460 0 1 0 22.804022366591767 36.017184647626436 3.995283516967938 0 0 0
6903 0 1 0 21.4505626397001 32.450096702162 3.7785876713793205 0 0 0
1992 0 1 0 0.7061076132513856 32.54731061176485 15.122635331644263 0 0 0
8869 0 1 0 1.9542462161628835 10.849005034309764 28.09899811753329 0 0 0
13777 0 1 0 0.20784315326040845 32.88489503488212 9.373998998738111 0 0 0
5933 0 1 0 10.13891881596512 0.9936746905726304 9.985367977916582 0 0 0
3366 0 1 0 18.107697533331457 20.277298562550943 0.4331869029379293 0 0 0
1304 0 1 0 23.47688763611673 35.04279529145692 7.032470466544098 0 0 0
1523 0 1 0 18.45376316771877 39.137848283399705 5.105658214056936 0 0 0
4317 0 1 0 20.35474111092442 37.294258759861485 1.93388512624133 0 0 0
2855 0 1 0 26.924443702005977 34.912521719505435 5.646313483916689 0 0 0
786 0 1 0 18.15799184722722 33.10448490535166 4.260463472038215 0 0 0
560 0 1 0 29.02393547874625 2.704787797216819 40.22299893154494 0 0 0
6050 0 1 0 19.211829327975664 36.23045282073271 4.547490327285504 0 0 0
1495 0 1 0 22.847427470934473 35.07688223957656 0.36553034218788316 0 0 0
7128 0 1 0 24.716214700988097 33.433422485339605 3.3647938122114978 0 0 0
3092 0 1 0 24.298388251089573 31.908659441974393 6.096056398274275 0 0 0
3332 0 1 0 32.6305694389213 32.307070421628815 6.7099549441178965 0 0 0
1399 0 1 0 0.8433583548111273 2.155115913723603 27.034484234724697 0 0 0
1966 0 1 0 32.87563573889178 36.63720767507366 5.248413060353536 0 0 0
2643 0 1 0 28.844634815484515 31.976034915365215 7.027778150943719 0 0 0
1175 0 1 0 30.864182101442506 39.513090114074714 6.1977658234783 0 0 0
86 0 1 0 25.097450481732583 37.717304826886 4.788355840396137 0 0 0
706 0 1 0 30.553404357945848 34.14694778867616 4.959310620994832 0 0 0
105 0 1 0 30.289689380880866 35.90500111266279 8.04415055259437 0 0 0
3128 0 1 0 34.7318803818834 38.04016837245179 1.9464817653142987 0 0 0
6035 0 1 0 28.719701287161126 37.576593854748964 4.900538032926264 0 0 0
1363 0 1 0 28.355042723446328 35.31321229816061 2.593831340622558 0 0 0
9327 0 1 0 38.851202650602055 21.800126033016628 12.54975120439184 0 0 0
2609 0 1 0 31.263816848426213 36.994632747979274 2.6817219144516597 0 0 0
679 0 1 0 25.42000134261535 36.84077491068532 1.8954957942578021 0 0 0
3634 0 1 0 19.88332262227152 27.26196524863394 36.15643242302397 0 0 0
4546 0 1 0 34.85308465757006 34.122678999191066 9.482358077780185 0 0 0
821 0 1 0 0.6069835287480134 18.284626112499907 3.0168779234869714 0 0 0
14253 0 1 0 0.7412892444687683 0.1892335423884583 39.75314617768411 0 0 0
8330 0 1 0 1.6856129961665318 19.438527303915244 10.585220072017115 0 0 0
1586 0 1 0 19.07102063273193 39.88484552946269 39.59670614623985 0 0 0
856 0 1 0 36.30384741920038 34.97422565440844 3.3361815261665506 0 0 0
141 0 1 0 37.401894629126545 38.73079624955026 8.776329112222466 0 0 0
3525 0 1 0 35.88509471303113 38.36526362324372 5.053289290640181 0 0 0
7435 0 1 0 16.662281855026972 1.7506886006838445 36.69224188543183 0 0 0