ITEM: TIMESTEP
10000
ITEM: NUMBER OF ATOMS
16384
ITEM: BOX BOUNDS pp pp pp
0.0000000000000000e+00 8.0764399999999995e+01
0.0000000000000000e+00 8.0764399999999995e+01
0.0000000000000000e+00 8.0764399999999995e+01
ITEM: ATOMS id type xs ys zs
5095 1 0.346673 0.131154 0.156027
5069 1 0.36935 0.493346 0.495798
4996 1 0.113792 0.0143531 0.0923334
6128 1 0.141461 0.0495492 0.0741468
1402 1 0.125168 0.480851 0.272084
1703 1 0.464681 0.0919915 0.232167
4859 1 0.0951911 0.139365 0.0169646
642 1 0.0477501 0.0597618 0.0775436
440 1 0.351147 0.332607 0.0159144
4665 1 0.387499 0.0155667 0.189888
5023 1 0.0458233 0.0512308 0.429711
778 1 0.441231 0.0915276 0.00286434
531 1 0.014554 0.0765041 0.0897827
570 1 0.0365796 0.307346 0.469597
12467 1 0.0588672 0.275612 0.149737
8690 1 0.066181 0.479634 0.325311
807 1 0.249705 0.476914 0.076973
14891 1 0.0771285 0.401615 0.105291
3282 1 0.229533 0.092256 0.0186242
4140 1 0.0925613 0.0765769 0.0840365
12224 1 0.263341 0.104819 0.0442891
100 1 0.00599919 0.290504 0.439924
12394 1 0.0762175 0.0579227 0.225089
12496 1 0.213357 0.0219509 0.0417529
15991 1 0.274239 0.455997 0.204242
9428 1 0.19509 0.110629 0.0183347
3022 1 0.46467 0.0960247 0.425287
13273 1 0.441265 0.0626854 0.221802
5664 1 0.0889014 0.481557 0.0325222
2347 1 0.411033 0.0145723 0.418378
3503 1 0.137975 0.08435 0.0193999
5586 1 0.293903 0.478336 0.336348
3950 1 0.125128 0.0754222 0.487186
4602 1 0.0176383 0.471217 0.0259403
6524 1 0.406498 0.0208602 0.484768
6055 1 0.427092 0.496121 0.08116
12894 1 0.275006 0.0417749 0.0930356
7396 1 0.0490323 0.496306 0.483201
4948 1 0.233003 0.124794 0.0689849
8777 1 0.335108 0.362518 0.304482
970 1 0.348739 0.069031 0.0842613
4207 1 0.0755841 0.164651 0.46288
6031 1 0.183711 0.0488965 0.0324495
6711 1 0.210352 0.153423 0.00187217
4223 1 0.290812 0.15181 0.00219987
7955 1 0.0836763 0.439549 0.336156
430 1 0.372173 0.156144 0.0534037
1187 1 0.402547 0.0558139 0.0458085
4862 1 0.381658 0.0546314 0.12874
616 1 0.475944 0.232342 0.474363
13875 1 0.458939 0.424973 0.0586012
1550 1 0.369775 0.0353033 0.24037
1622 1 0.370274 0.189055 0.079619
1326 1 0.378999 0.0809237 0.0416983
9851 1 0.289542 0.0324365 0.0475581
1022 1 0.384626 0.107596 0.167443
113 1 0.283971 0.0783951 0.0802182
9892 1 0.326416 0.0399528 0.0184503
5542 1 0.00226705 0.218258 0.0343705
1578 1 0.381781 0.487123 0.242614
9647 1 0.167326 0.0140452 0.487019
3365 1 0.145035 0.493045 0.0137631
10382 1 0.248685 0.000178543 0.371149
5511 1 0.467729 0.10319 0.0551444
11362 1 0.320494 0.0246799 0.351249
4953 1 0.487739 0.495269 0.00167179
10206 1 0.327343 0.116949 0.495995
5993 1 0.495438 0.0350856 0.11138
6077 1 0.226776 0.00312503 0.223386
9682 1 0.118164 0.0361788 0.253364
8427 1 0.401358 0.191837 0.068192
15098 1 0.0154269 0.334223 0.114314
4815 1 0.402848 0.092962 0.12678
2124 1 0.170846 0.46625 0.151021
677 1 0.453706 0.0733694 0.11403
5081 1 0.440282 0.0239521 0.437374
8951 1 0.46886 0.157914 0.22884
8318 1 0.352649 0.0850226 0.115624
5243 1 0.473465 0.00235876 0.015203
4444 1 0.00944406 0.00333692 0.120062
1215 1 0.0324271 0.254607 0.310394
10998 1 0.199114 0.0319428 0.268566
5771 1 0.488088 0.00386598 0.247267
7999 1 0.277111 0.389614 0.0130649
10735 1 0.0111833 0.144957 0.0400031
7890 1 0.401534 0.356689 0.00893753
899 1 0.0889074 0.101756 0.0215677
4894 1 0.101937 0.438918 0.159675
10311 1 0.497312 0.438181 0.189666
5779 1 0.0850376 0.0553507 0.056087
9154 1 0.168978 0.0265956 0.0603008
1864 1 0.0963561 0.176441 0.0333206
13827 1 0.0451954 0.396462 0.0818525
685 1 0.0359666 0.0246066 0.131266
1191 1 0.125817 0.131766 0.0381646
13615 1 0.4947 0.277265 0.0438104
1146 1 0.368997 0.333024 0.0550166
1836 1 0.0149179 0.0321247 0.204179
12798 1 0.42804 0.0669881 0.173101
3646 1 0.409975 0.00443283 0.301355
10957 1 0.0598819 0.00985284 0.495933
1543 1 0.22588 0.049296 0.0644818
12716 1 0.0780517 0.499001 0.371775
3021 1 0.170804 0.225037 0.061944
4167 1 0.485562 0.238536 0.047589
6013 1 0.149424 0.173845 0.0264328
8216 1 0.487998 0.0022998 0.345031
4819 1 0.450483 0.469541 0.408387
8798 1 0.160843 0.115387 0.037764
4718 1 0.238943 0.128611 0.019914
6376 1 0.114472 0.0293114 0.213342
1408 1 0.148076 0.089388 0.0606759
15228 1 0.471304 0.0761221 0.0250029
1275 1 0.118681 0.196639 0.0128998
6007 1 0.202657 0.0923898 0.0522004
9518 1 0.233435 0.0439869 0.369269
2015 1 0.307524 0.0519744 0.0872028
5709 1 0.246644 0.0448455 0.119019
2122 1 0.00836368 0.359018 0.365444
8172 1 0.00199901 0.391941 0.468072
12072 1 0.354465 0.118841 0.0870639
14311 1 0.3393 0.0809553 0.0439165
8000 1 0.300635 0.161776 0.0442936
2889 1 0.227168 0.207639 0.0777057
224 1 0.199531 0.13088 0.0528698
3243 1 0.264132 0.15548 0.0455087
4133 1 0.357786 0.00298065 0.172741
3353 1 0.00415929 0.232192 0.452176
484 1 0.26759 0.0401891 0.155221
5047 1 0.277249 0.122111 0.0115451
2036 1 0.440933 0.251959 0.133024
814 1 0.404731 0.18505 0.00714868
8678 1 0.309951 0.272771 0.0392818
1460 1 0.336195 0.145018 0.0543118
534 1 0.355915 0.19797 0.0411073
6986 1 0.320547 0.0181422 0.193284
12432 1 0.399353 0.093996 0.0163675
1850 1 0.319697 0.19935 0.0556066
1362 1 0.135179 0.491669 0.312849
8295 1 0.32165 0.143541 0.0980865
9543 1 0.0499459 0.321853 0.0416664
12601 1 0.372092 0.388975 0.273412
6096 1 0.388048 0.0938326 0.0894791
1830 1 0.0738471 0.029366 0.303841
1644 1 0.475905 0.24552 0.245087
5082 1 0.0143052 0.463649 0.472757
3351 1 0.266676 0.0863058 0.0109232
7418 1 0.438663 0.116886 0.0847702
8990 1 0.0194143 0.394888 0.0376116
5455 1 0.453705 0.138369 0.115528
6207 1 0.277818 0.340883 0.00656073
5042 1 0.47216 0.144156 0.0511575
1902 1 0.452846 0.175586 0.428162
10913 1 0.470313 0.0717016 0.0726635
4520 1 0.385262 0.22747 0.0833194
1609 1 0.388301 0.168438 0.495529
1918 1 0.471658 0.255537 0.107527
10110 1 0.405252 0.198578 0.105334
11659 1 0.350323 0.222224 0.109322
1916 1 0.496682 0.241808 0.196056
11983 1 0.422255 0.160066 0.0857878
2081 1 0.41856 0.384863 0.0253513
1532 1 0.37277 0.288884 0.0358226
4989 1 0.424541 0.128839 0.016411
6755 1 0.472327 0.44116 0.46677
312 1 0.455262 0.166723 0.0289395
15102 1 0.493548 0.128113 0.216116
4703 1 0.0305805 0.178211 0.0150166
10467 1 0.0916697 0.228973 0.0174549
5164 1 0.234781 0.0154661 0.319837
11095 1 0.0302311 0.488569 0.31629
6089 1 0.0152164 0.21183 0.178083
6095 1 0.0233884 0.264509 0.120322
1376 1 0.487465 0.433378 0.254136
192 1 0.146606 0.216788 0.0341481
10619 1 0.473967 0.321802 0.377448
13867 1 0.498115 0.0687387 0.498128
1668 1 0.260035 0.0385398 0.300139
8582 1 0.043346 0.232651 0.0279802
9311 1 0.0720965 0.206917 0.0934508
3642 1 0.00794806 0.0338393 0.264646
2112 1 0.0756569 0.0299568 0.127478
2880 1 0.186284 0.208804 0.0895685
4701 1 0.459841 0.186711 0.391943
119 1 0.179422 0.25088 0.0919006
8246 1 0.0296132 0.314654 0.371466
12487 1 0.0109703 0.445867 0.0538103
1209 1 0.177393 0.179774 0.00791048
9129 1 0.252476 0.234533 0.0582158
3160 1 0.275996 0.197998 0.0674902
4915 1 0.0661341 0.425983 0.365539
9217 1 0.00394527 0.387321 0.325153
8035 1 0.189521 0.0261832 0.227201
9531 1 0.225264 0.306741 0.0631515
1844 1 0.108487 0.269408 0.0631957
185 1 0.214652 0.226321 0.0493379
1185 1 0.156821 0.268156 0.0651944
15927 1 0.247157 0.211189 0.0147172
14097 1 0.178057 0.0120819 0.306398
2485 1 0.345299 0.265084 0.0219257
3151 1 0.0759614 0.189406 0.491122
10430 1 0.49156 0.238101 0.339478
8561 1 0.431873 0.0324451 0.388023
1624 1 0.283664 0.353179 0.120953
3520 1 0.245743 0.284291 0.0265087
595 1 0.299389 0.336555 0.0311467
1499 1 0.457356 0.395406 0.421442
1933 1 0.220456 0.308344 0.0114892
2455 1 0.358332 0.135905 0.486377
3315 1 0.492271 0.296192 0.130275
567 1 0.444972 0.359218 0.352861
1304 1 0.277413 0.332871 0.0619902
245 1 0.344896 0.418615 0.0269003
1468 1 0.184246 0.225354 0.0263904
532 1 0.487552 0.188151 0.102916
3005 1 0.4366 0.0381922 0.136523
10195 1 0.392423 0.26059 0.0938866
1806 1 0.0685912 0.296365 0.188072
1042 1 0.308988 0.217144 0.131889
161 1 0.27042 0.366155 0.0428765
2432 1 0.417312 0.277612 0.0448747
782 1 0.278636 0.298281 0.0334979
10622 1 0.429909 0.415307 0.461486
5632 1 0.443638 0.255989 0.0371026
5870 1 0.290196 0.299341 0.156269
4857 1 0.302556 0.320872 0.124876
673 1 0.388439 0.312548 0.0134346
622 1 0.310472 0.24637 0.495512
1213 1 0.311973 0.218579 0.0909849
1199 1 0.208918 0.00124024 0.190718
10132 1 0.40899 0.275361 0.390215
5340 1 0.257267 0.493321 0.146213
12065 1 0.259597 0.0643683 0.410891
894 1 0.227668 0.0796986 0.418277
3182 1 0.0152286 0.106623 0.063696
691 1 0.329961 0.306345 0.0292033
222 1 0.359983 0.423271 0.105421
1732 1 0.421399 0.23579 0.0657241
9070 1 0.482835 0.4057 0.193994
9203 1 0.398704 0.259648 0.152489
895 1 0.464667 0.27104 0.0693473
3802 1 0.375734 0.42815 0.169814
11901 1 0.437774 0.203688 0.0379754
15872 1 0.0550638 0.439179 0.403031
11919 1 0.408871 0.227285 0.469977
9930 1 0.0902749 0.090028 0.485596
485 1 0.368491 0.288824 0.0847214
7021 1 0.451917 0.469136 0.461667
3302 1 0.35713 0.122026 0.0212587
14793 1 0.0787546 0.32123 0.0160224
9271 1 0.452122 0.451366 0.0849645
14125 1 0.0855071 0.358506 0.0281097
2947 1 0.105216 0.00429113 0.0077657
4847 1 0.0562003 0.159068 0.362621
16346 1 0.106875 0.243146 0.141323
1360 1 0.0913687 0.340936 0.067352
2610 1 0.127952 0.481549 0.0415645
1153 1 0.364865 0.458879 0.0352509
5510 1 0.176415 0.472152 0.0282824
1992 1 0.100915 0.192299 0.0713395
3386 1 0.414747 0.414574 0.42441
1026 1 0.395398 0.30455 0.0646668
70 1 0.0865278 0.296844 0.0473883
344 1 0.113468 0.463761 0.0093383
9458 1 0.0113327 0.468227 0.292135
1986 1 0.185295 0.0611952 0.0735839
12083 1 0.00872315 0.262579 0.482463
1140 1 0.179162 0.286406 0.0937166
787 1 0.225572 0.442262 0.184133
8925 1 0.475727 0.191807 0.146408
10993 1 0.196565 0.257407 0.0545528
676 1 0.181537 0.361799 0.0240487
9264 1 0.0765942 0.259001 0.0321055
6700 1 0.146273 0.365948 0.0298879
1791 1 0.194242 0.321916 0.0794347
8012 1 0.188007 0.293206 0.0384452
1170 1 0.0217216 0.0219519 0.31888
15285 1 0.255858 0.445867 0.448486
5061 1 0.164778 0.270381 0.0241399
1905 1 0.121709 0.307551 0.0563642
4168 1 0.207792 0.478249 0.406945
1117 1 0.499702 0.213965 0.0738341
384 1 0.250965 0.411312 0.150631
66 1 0.44405 0.0196992 0.315593
1437 1 0.203247 0.428381 0.0890516
8811 1 0.0719909 0.466203 0.359293
1495 1 0.313604 0.369927 0.0169553
8365 1 0.402585 0.0157642 0.120533
4621 1 0.478085 0.0106766 0.309381
6513 1 0.316646 0.0405608 0.475999
4319 1 0.310401 0.35783 0.0623167
11831 1 0.0259721 0.31771 0.0170246
11946 1 0.45099 0.411019 0.0129465
11387 1 0.13776 0.104533 0.469348
5970 1 0.381865 0.395519 0.027698
9617 1 0.276125 0.399493 0.124265
10475 1 0.00513471 0.173256 0.0694941
4730 1 0.00357861 0.347269 0.206971
5434 1 0.373865 0.379125 0.0621129
4804 1 0.328144 0.297156 0.105441
1858 1 0.340259 0.302155 0.0673621
4961 1 0.102979 0.238748 0.470556
287 1 0.347338 0.327594 0.114072
7547 1 0.364784 0.449073 0.140661
3511 1 0.464862 0.11738 0.0212683
4871 1 0.421562 0.307264 0.0993076
5058 1 0.075366 0.476282 0.0689783
8702 1 0.029214 0.140779 0.257838
250 1 0.334807 0.336641 0.0730859
343 1 0.365733 0.353926 0.134515
16204 1 0.0106163 0.263462 0.377173
1777 1 0.0202479 0.0404973 0.0570528
7023 1 0.402138 0.440237 0.10885
875 1 0.483812 0.222468 0.382823
972 1 0.367188 0.329108 0.494297
1749 1 0.19964 0.464286 0.0781047
1337 1 0.385348 0.420007 0.0559155
1193 1 0.432731 0.264762 0.0947007
6046 1 0.416493 0.34269 0.118208
4975 1 0.4575 0.297267 0.160912
13768 1 0.171387 0.470075 0.252705
2281 1 0.15059 0.242625 0.473438
9867 1 0.398048 0.495376 0.132639
1680 1 0.472476 0.322306 0.0157751
5769 1 0.398666 0.348968 0.0728248
9469 1 0.131869 0.252094 0.0373151
16174 1 0.491896 0.464659 0.426738
9921 1 0.48929 0.233443 0.00524156
14142 1 0.169652 0.339817 0.05414
6731 1 0.448656 0.413612 0.494299
10975 1 0.460391 0.409816 0.332902
230 1 0.367638 0.0187886 0.107697
4253 1 0.0966846 0.492991 0.234571
5937 1 0.0200325 0.473776 0.0796017
9687 1 0.0685496 0.331261 0.473841
1461 1 0.0449916 0.314675 0.100359
7901 1 0.295599 0.42774 0.09079
5201 1 0.144826 0.0399294 0.023383
53 1 0.300122 0.0752493 0.0336761
9632 1 0.0108699 0.375071 0.227703
15797 1 0.388892 0.00546965 0.0816991
14689 1 0.484202 0.49144 0.472762
3140 1 0.227312 0.490833 0.257617
13798 1 0.487202 0.327775 0.310824
2348 1 0.179442 0.433601 0.00943595
5334 1 0.134567 0.434755 0.0676791
13068 1 0.0887344 0.014418 0.346674
9105 1 0.49685 0.188349 0.00438131
10262 1 0.197839 0.437572 0.0500266
10650 1 0.145792 0.438799 0.0272024
15068 1 0.129856 0.409137 0.138057
151 1 0.201388 0.363002 0.0686659
1940 1 0.147746 0.404791 0.00738302
6393 1 0.0470453 0.362934 0.148068
10072 1 0.00553585 0.259201 0.00676293
11916 1 0.44274 0.317792 0.363029
10153 1 0.485846 0.320779 0.440494
1013 1 0.413057 0.158135 0.0476227
6417 1 0.169946 0.00060469 0.388351
13998 1 0.0853989 0.464218 0.393443
5297 1 0.181597 0.394856 0.0395828
5078 1 0.0526644 0.311178 0.252997
5466 1 0.235145 0.0228492 0.271599
1894 1 0.219362 0.381285 0.0275805
4851 1 0.354275 0.0417922 0.272815
1882 1 0.284912 0.494856 0.0349404
8432 1 0.106075 0.454269 0.0764284
9619 1 0.0293399 0.248807 0.212176
5089 1 0.216363 0.400115 0.0576847
4587 1 0.258287 0.404323 0.0787008
7300 1 0.232773 0.484573 0.43569
15823 1 0.477483 0.463942 0.379123
505 1 0.00639643 0.297239 0.0403528
4110 1 0.264443 0.486424 0.287408
9973 1 0.435151 0.47558 0.121782
6913 1 0.334466 0.387371 0.0564714
7331 1 0.34119 0.420367 0.075154
5281 1 0.312953 0.456435 0.0741729
13932 1 0.386187 0.40224 0.090392
937 1 0.378125 0.32295 0.0976052
1729 1 0.261317 0.433066 0.118315
717 1 0.326032 0.393541 0.142082
10553 1 0.379221 0.433221 0.0154887
5490 1 0.235786 0.0165257 0.146481
10145 1 0.176626 0.406372 0.0741903
2392 1 0.300683 0.379745 0.0909792
1763 1 0.27769 0.269836 0.479318
9823 1 0.298912 0.437086 0.133649
4595 1 0.330227 0.442555 0.110561
14985 1 0.200405 0.475444 0.314837
5375 1 0.319617 0.407036 0.105599
7286 1 0.492846 0.462223 0.492588
14132 1 0.308459 0.40433 0.00400191
10886 1 0.392629 0.204827 0.03854
9090 1 0.381031 0.447836 0.0791499
9888 1 0.0225586 0.117064 0.360764
6084 1 0.0684957 0.495779 0.161409
5302 1 0.325719 0.449861 0.0128238
5354 1 0.324156 0.236178 0.0510894
8064 1 0.399704 0.447343 0.471412
11717 1 0.416296 0.460677 0.061455
4432 1 0.0512423 0.40335 0.465784
13316 1 0.383523 0.481324 0.0570907
13211 1 0.493722 0.413205 0.0253365
13906 1 0.277374 0.497731 0.216156
14648 1 0.420834 0.420788 0.0838098
2657 1 0.489636 0.275292 0.45988
5683 1 0.451412 0.362373 0.114026
3758 1 0.111686 0.0496717 0.107668
12805 1 0.0493589 0.158556 0.0403816
7008 1 0.0351029 0.0404779 0.236914
13356 1 0.0318707 0.337785 0.179564
12942 1 0.415362 0.486528 0.476108
5793 1 0.250194 0.0235077 0.460619
646 1 0.00811833 0.296508 0.497781
5153 1 0.398504 0.206617 0.269785
1133 1 0.00543323 0.155459 0.340844
12755 1 0.00270555 0.0067717 0.184363
4062 1 0.130016 0.0765924 0.0895214
9153 1 0.498154 0.0380478 0.265681
10380 1 0.437331 0.113469 0.489228
8302 1 0.127651 0.177822 0.130243
5240 1 0.137289 0.104544 0.153287
4298 1 0.0955175 0.0629672 0.181143
10575 1 0.480741 0.298356 0.411999
14671 1 0.444773 0.300961 0.0638934
1891 1 0.110785 0.117491 0.0924003
7615 1 0.276533 0.233465 0.485247
11877 1 0.149726 0.136208 0.499595
5228 1 0.217663 0.0360889 0.182354
118 1 0.173249 0.0523389 0.129247
1876 1 0.478483 0.278393 0.21058
7105 1 0.285791 0.0338199 0.404667
5992 1 0.0985467 0.0272016 0.159454
12415 1 0.26391 0.0129211 0.229076
7413 1 0.298096 0.0040266 0.238964
8336 1 0.231328 0.0632539 0.157961
1353 1 0.375723 0.119967 0.0564602
4905 1 0.204187 0.0292174 0.137118
308 1 0.136839 0.189788 0.0970501
5170 1 0.170939 0.0130834 0.193369
4567 1 0.182738 0.162043 0.0439986
9760 1 0.496366 0.420351 0.38193
1977 1 0.236893 0.0137616 0.0911902
1107 1 0.273609 0.0516091 0.0132886
5908 1 0.0135031 0.437663 0.190958
5694 1 0.25338 0.0241764 0.189168
10398 1 0.132665 0.309273 0.487236
11740 1 0.0580459 0.154219 0.406237
2922 1 0.162537 0.15697 0.23032
10462 1 0.298672 0.0184499 0.0951137
23 1 0.272324 0.166212 0.115076
4592 1 0.32653 0.0761126 0.224646
4368 1 0.0665463 0.433325 0.226123
2736 1 0.256573 0.0787455 0.131049
1435 1 0.472123 0.257874 0.288936
10515 1 0.471675 0.488817 0.357197
4407 1 0.199794 0.0301383 0.380542
4145 1 0.289283 0.0355094 0.220664
4662 1 0.085295 0.0530737 0.418498
5059 1 0.341874 0.094499 0.149099
11090 1 0.404747 0.12912 0.0822191
5176 1 0.344345 0.163097 0.179329
10109 1 0.445662 0.374916 0.495763
4118 1 0.0576059 0.344427 0.0728075
4082 1 0.357486 0.0571265 0.172313
745 1 0.461432 0.250628 0.371049
164 1 0.437182 0.109698 0.193993
8887 1 0.33668 0.089521 0.1876
4398 1 0.40878 0.0883232 0.203848
1930 1 0.414153 0.0437755 0.20118
4893 1 0.297493 0.128495 0.119914
14439 1 0.176739 0.492884 0.0601307
5739 1 0.323582 0.100853 0.0714328
9624 1 0.438342 0.313059 0.309094
4373 1 0.304336 0.0893947 0.108726
1528 1 0.378227 0.0372287 0.478478
8217 1 0.408709 0.0596929 0.0908
1837 1 0.0496984 0.3325 0.443835
5144 1 0.426065 0.201376 0.167548
9552 1 0.415319 0.129572 0.167113
12309 1 0.47004 0.357822 0.41629
280 1 0.00975901 0.182917 0.111846
10332 1 0.396997 0.193905 0.185964
1324 1 0.464936 0.10585 0.107162
3764 1 0.431939 0.326738 0.0083495
938 1 0.440163 0.0931418 0.145877
1285 1 0.414757 0.128225 0.123214
12393 1 0.39274 0.12444 0.209268
1912 1 0.37895 0.19919 0.220982
12984 1 0.281791 0.470353 0.12948
949 1 0.409104 0.00936637 0.225129
9855 1 0.11211 0.0797728 0.0429198
9192 1 0.027916 0.201955 0.0860441
840 1 0.100958 0.109628 0.0619287
8450 1 0.0602664 0.0900622 0.0174078
4491 1 0.0303033 0.090595 0.294962
5126 1 0.150604 0.229603 0.0947583
9899 1 0.064309 0.098761 0.0558113
1238 1 0.0823476 0.146248 0.0850372
1249 1 0.0768283 0.137325 0.0472809
12344 1 0.138658 0.205822 0.0657247
737 1 0.0548938 0.0711317 0.19559
10607 1 0.0859673 0.243635 0.0935776
8922 1 0.154916 0.147648 0.110627
788 1 0.0309561 0.18277 0.263942
621 1 0.0630802 0.0752024 0.119665
11204 1 0.0342555 0.194161 0.050989
9310 1 0.053711 0.18251 0.115212
5171 1 0.154253 0.126425 0.0745495
11243 1 0.497787 0.0675448 0.29695
8053 1 0.244019 0.00388113 0.492641
2345 1 0.203205 0.0242964 0.0794719
251 1 0.223276 0.187768 0.233283
76 1 0.140382 0.0772382 0.131884
94 1 0.150983 0.169433 0.0605699
10854 1 0.205937 0.18729 0.038774
944 1 0.180315 0.0923012 0.0836354
1825 1 0.149344 0.105379 0.10418
4605 1 0.101078 0.166693 0.152341
2585 1 0.220824 0.0863474 0.130097
960 1 0.120562 0.153506 0.0901997
13912 1 0.174597 0.495101 0.335214
1790 1 0.185258 0.0959709 0.122996
5704 1 0.0916454 0.161782 0.116222
1313 1 0.0758045 0.112672 0.108076
4793 1 0.0901239 0.182967 0.184986
4102 1 0.248876 0.0798962 0.0850502
837 1 0.27706 0.260329 0.0412304
2213 1 0.278827 0.063183 0.184368
3023 1 0.33349 0.177044 0.07918
989 1 0.222913 0.156323 0.0398874
7365 1 0.256616 0.119137 0.121598
1566 1 0.179646 0.156557 0.0833996
753 1 0.249234 0.207357 0.154884
11242 1 0.477884 0.432476 0.119202
3794 1 0.347856 0.108459 0.260655
3000 1 0.313883 0.118081 0.166169
11984 1 0.253299 0.0626422 0.0415382
1793 1 0.269675 0.112471 0.0873598
6679 1 0.225276 0.230233 0.133192
1271 1 0.212533 0.116695 0.102015
6381 1 0.230835 0.162229 0.267044
3326 1 0.278794 0.0412264 0.252951
2430 1 0.221421 0.16755 0.0877219
1333 1 0.29444 0.0896376 0.147574
10594 1 0.365843 0.170221 0.20314
604 1 0.309157 0.11383 0.209718
1288 1 0.38204 0.141729 0.156371
4599 1 0.335325 0.194618 0.148927
4927 1 0.443101 0.173958 0.120889
501 1 0.37735 0.124162 0.119384
8963 1 0.258697 0.24224 0.209565
2362 1 0.407876 0.163142 0.120505
13338 1 0.297509 0.165848 0.0815836
1520 1 0.233576 0.100538 0.176664
1198 1 0.3504 0.166889 0.108954
8193 1 0.400934 0.140099 0.263634
177 1 0.238356 0.151733 0.11934
3168 1 0.324811 0.243164 0.216142
6068 1 0.38808 0.301319 0.134054
1560 1 0.458124 0.143474 0.199264
248 1 0.376937 0.189303 0.155844
7159 1 0.415058 0.225917 0.2036
1657 1 0.481589 0.141509 0.143757
72 1 0.363722 0.22198 0.142611
504 1 0.323283 0.224995 0.167247
8433 1 0.400365 0.23796 0.121817
5716 1 0.414025 0.193083 0.226502
1852 1 0.448612 0.17152 0.171118
4644 1 0.354799 0.369129 0.0336228
1592 1 0.22788 0.464295 0.0447794
568 1 0.0218678 0.226177 0.133487
1486 1 0.463425 0.160983 0.0872769
8820 1 0.486098 0.0826186 0.204003
1766 1 0.0151687 0.276345 0.159862
1203 1 0.00590937 0.0793274 0.458139
4340 1 0.0641867 0.177237 0.0671835
5445 1 0.463992 0.0457453 0.0458801
298 1 0.154425 0.198653 0.155506
10232 1 0.037417 0.304713 0.156156
15530 1 0.374129 0.0428208 0.0721744
8394 1 0.0298787 0.397782 0.497324
10876 1 0.392851 0.478934 0.447003
924 1 0.48654 0.367055 0.450055
5546 1 0.451382 0.480027 0.159677
1302 1 0.11834 0.0579719 0.150897
4565 1 0.0660934 0.2148 0.0558137
4496 1 0.0418277 0.0991314 0.147229
5591 1 0.111076 0.325025 0.10388
8401 1 0.0349361 0.135958 0.134733
2135 1 0.0564643 0.205387 0.15983
11622 1 0.0160299 0.200261 0.477958
5497 1 0.429372 0.0935821 0.041351
4670 1 0.255662 0.157287 0.0802745
402 1 0.168422 0.279603 0.13143
2843 1 0.166366 0.183803 0.114124
5866 1 0.0901639 0.205313 0.142241
458 1 0.107431 0.233814 0.0624655
978 1 0.213646 0.236625 0.0945105
1338 1 0.193217 0.286634 0.177294
1564 1 0.202822 0.157358 0.11788
1262 1 0.135112 0.236206 0.164914
4988 1 0.148544 0.26801 0.159407
2447 1 0.232067 0.264797 0.068646
88 1 0.269409 0.183199 0.0232006
1220 1 0.217952 0.195137 0.115636
9618 1 0.284981 0.219171 0.0339702
1952 1 0.227488 0.277216 0.20356
1935 1 0.244007 0.189043 0.0457959
857 1 0.299733 0.129665 0.0758683
2271 1 0.276909 0.201791 0.114938
238 1 0.317969 0.333668 0.181413
3714 1 0.312897 0.157451 0.152504
770 1 0.264682 0.291148 0.0651784
7529 1 0.133871 0.13721 0.174684
1961 1 0.320562 0.254784 0.0943867
1261 1 0.210988 0.261997 0.0117358
176 1 0.221743 0.327099 0.105611
1690 1 0.185409 0.311773 0.117651
1862 1 0.271637 0.331908 0.223735
1472 1 0.198977 0.253719 0.130411
546 1 0.230427 0.313495 0.164868
10292 1 0.366981 0.256158 0.126709
3197 1 0.291799 0.236526 0.065478
4498 1 0.248705 0.241777 0.165062
873 1 0.277099 0.279961 0.194312
973 1 0.30668 0.182467 0.113402
1478 1 0.367732 0.28276 0.163985
1357 1 0.291184 0.246442 0.247678
235 1 0.284614 0.239114 0.102922
1332 1 0.233115 0.268047 0.124076
877 1 0.376434 0.327675 0.158728
1165 1 0.258094 0.290583 0.222351
1767 1 0.297797 0.181013 0.213607
859 1 0.300813 0.300994 0.0751499
1907 1 0.211244 0.294368 0.138082
3967 1 0.288129 0.253113 0.156006
1430 1 0.350659 0.303792 0.140403
36 1 0.455531 0.289504 0.112141
9792 1 0.415234 0.210318 0.135234
5948 1 0.254599 0.0521197 0.229256
2576 1 0.46555 0.229033 0.0824727
1666 1 0.328826 0.36807 0.215936
435 1 0.430757 0.315988 0.140989
4475 1 0.456527 0.207612 0.110623
267 1 0.352196 0.25209 0.175433
1239 1 0.410683 0.275245 0.121075
8060 1 0.0596227 0.477596 0.108348
1071 1 0.280477 0.0453226 0.49972
9698 1 0.311619 0.267882 0.178975
13535 1 0.411389 0.290718 0.169664
3432 1 0.344937 0.0117685 0.138389
743 1 0.03807 0.267459 0.0369921
9949 1 0.147839 0.274106 0.191653
1654 1 0.119778 0.319841 0.191776
4178 1 0.0999431 0.284869 0.206888
9753 1 0.0723297 0.235519 0.127888
900 1 0.0574 0.275121 0.110127
1256 1 0.0894727 0.294489 0.0935146
13266 1 0.384163 0.451877 0.264123
1305 1 0.141138 0.2689 0.10642
8714 1 0.00720713 0.112973 0.395462
38 1 0.113263 0.343191 0.142939
319 1 0.123682 0.39568 0.0764865
9743 1 0.141505 0.374435 0.210866
1221 1 0.0718367 0.329698 0.16406
1720 1 0.0989071 0.27607 0.133804
1458 1 0.0485829 0.429897 0.166903
9959 1 0.0127183 0.298993 0.100091
9836 1 0.0377781 0.354182 0.22049
513 1 0.0993993 0.377527 0.207463
57 1 0.160413 0.30475 0.0541803
623 1 0.201044 0.329905 0.0369566
320 1 0.143122 0.310407 0.124471
1620 1 0.145868 0.301689 0.166554
5768 1 0.209372 0.347866 0.135877
1691 1 0.189744 0.319727 0.154174
8905 1 0.171036 0.306554 0.206378
1577 1 0.126234 0.358209 0.0670966
1007 1 0.158572 0.390602 0.162242
967 1 0.146037 0.328286 0.0881513
10783 1 0.214463 0.288999 0.0966805
1603 1 0.203286 0.286124 0.224767
571 1 0.177549 0.371798 0.12029
5557 1 0.121023 0.322546 0.230568
9903 1 0.172524 0.26663 0.238084
2358 1 0.224206 0.371677 0.0999348
1583 1 0.246089 0.336315 0.131607
3241 1 0.230885 0.41085 0.103972
598 1 0.258756 0.357309 0.0857991
5026 1 0.235755 0.337932 0.0547343
6313 1 0.248675 0.400584 0.0364951
871 1 0.14369 0.35587 0.179534
1434 1 0.295588 0.360745 0.165541
1156 1 0.181804 0.409349 0.232192
3667 1 0.256312 0.372344 0.128641
8718 1 0.194648 0.3241 0.248274
4132 1 0.218309 0.392618 0.139902
1373 1 0.149746 0.406891 0.10291
1561 1 0.29426 0.310288 0.197413
5881 1 0.189503 0.402845 0.109608
2868 1 0.303782 0.418884 0.205661
3095 1 0.278224 0.329556 0.157232
8592 1 0.223103 0.356515 0.20629
9369 1 0.253429 0.317319 0.0904334
3807 1 0.336464 0.301444 0.191616
2075 1 0.376303 0.361486 0.100974
4411 1 0.255743 0.405351 0.228373
5593 1 0.387945 0.301593 0.196785
4047 1 0.293112 0.303023 0.24318
59 1 0.256959 0.32777 0.189627
1789 1 0.284342 0.281025 0.109677
1611 1 0.339513 0.42335 0.209856
9424 1 0.298911 0.331892 0.0909105
796 1 0.28703 0.362898 0.208441
12479 1 0.297058 0.393731 0.224137
6098 1 0.386469 0.381703 0.146095
666 1 0.253525 0.275311 0.0971601
5421 1 0.319081 0.406235 0.2652
369 1 0.247065 0.363606 0.232662
10122 1 0.0610815 0.265432 0.0662602
1459 1 0.412197 0.34468 0.153461
13048 1 0.388841 0.357462 0.184883
8789 1 0.410504 0.3877 0.0606284
659 1 0.331893 0.366443 0.0958714
418 1 0.429334 0.321286 0.179058
1162 1 0.488166 0.250065 0.15065
4926 1 0.464318 0.355182 0.0527649
11250 1 0.0114457 0.499399 0.392667
1270 1 0.46349 0.374363 0.164591
8509 1 0.457467 0.462598 0.194849
5114 1 0.349994 0.355994 0.170635
5721 1 0.34962 0.337069 0.20679
4998 1 0.498617 0.396315 0.155256
12680 1 0.438852 0.287396 0.196347
3894 1 0.0425508 0.410466 0.212127
9731 1 0.093923 0.41433 0.057248
4468 1 0.0754551 0.406082 0.191854
2438 1 0.14297 0.368302 0.134025
6761 1 0.129605 0.443011 0.122123
1921 1 0.0893901 0.378903 0.0682608
9848 1 0.119444 0.363591 0.243319
4477 1 0.0613878 0.203295 0.0163841
13188 1 0.0471633 0.397052 0.130076
13991 1 0.0709808 0.489538 0.273138
3545 1 0.035557 0.365444 0.105145
12567 1 0.0158893 0.0776387 0.260094
8982 1 0.0330015 0.448057 0.132784
5831 1 0.115364 0.407434 0.171033
3904 1 0.479028 0.338913 0.160395
7509 1 0.424512 0.496737 0.0439479
5826 1 0.10036 0.45568 0.227003
1716 1 0.189116 0.297627 0.000899014
13029 1 0.0447725 0.0957163 0.0907045
26 1 0.166564 0.143142 0.00615764
6094 1 0.116604 0.331594 0.0268745
13091 1 0.0455385 0.485134 0.239097
3683 1 0.470757 0.0685714 0.269377
1371 1 0.199552 0.470242 0.184509
13122 1 0.162703 0.448357 0.0740146
720 1 0.17726 0.366387 0.224907
6323 1 0.0972601 0.429117 0.112072
876 1 0.0792284 0.407537 0.149698
5789 1 0.0439508 0.441464 0.0700444
1692 1 0.167817 0.420646 0.13398
14482 1 0.225911 0.436786 0.135774
4421 1 0.14699 0.470107 0.174373
8843 1 0.170723 0.0273796 0.160904
4359 1 0.22455 0.472823 0.15158
9524 1 0.0592719 0.378327 0.0490772
7298 1 0.284799 0.393633 0.161329
1618 1 0.15841 0.369977 0.0885554
128 1 0.136556 0.48393 0.0962427
13425 1 0.365072 0.37289 0.457987
8750 1 0.467578 0.429542 0.218669
133 1 0.305351 0.443684 0.173462
7484 1 0.151817 0.0230654 0.27639
1638 1 0.262521 0.451184 0.16473
2833 1 0.326374 0.167049 0.0188355
1810 1 0.177977 0.469373 0.110628
5280 1 0.481256 0.208562 0.415416
5950 1 0.231135 0.35475 0.168061
7523 1 0.208838 0.353702 0.468517
228 1 0.446321 0.195214 0.0778248
10111 1 0.48992 0.464298 0.0204975
1757 1 0.267328 0.0025093 0.0744499
9221 1 0.308957 0.423457 0.0390522
5905 1 0.329857 0.427192 0.15577
5843 1 0.321975 0.463354 0.143003
1045 1 0.403347 0.401483 0.174006
1747 1 0.234198 0.484775 0.19292
10152 1 0.301902 0.480356 0.174574
14183 1 0.462242 0.124959 0.246373
4836 1 0.356386 0.420578 0.252152
6020 1 0.0357189 0.279717 0.343522
536 1 0.428677 0.456597 0.177857
427 1 0.364266 0.385184 0.239196
408 1 0.320028 0.390513 0.183571
4066 1 0.355371 0.397859 0.164087
2561 1 0.0676348 0.126285 0.474085
9922 1 0.034105 0.170009 0.425031
13315 1 0.472131 0.376591 0.0247956
11987 1 0.313352 0.0229161 0.437897
13053 1 0.481852 0.360036 0.196549
3884 1 0.131895 0.441634 0.194595
5845 1 0.351906 0.487122 0.266129
6075 1 0.0163823 0.277293 0.239464
9026 1 0.359071 0.390163 0.123539
13152 1 0.388167 0.415517 0.129849
5403 1 0.428406 0.376583 0.146175
13542 1 0.416888 0.399963 0.110384
9172 1 0.49885 0.190002 0.276347
15644 1 0.325028 0.420974 0.467728
11234 1 0.393187 0.475718 0.165631
13158 1 0.0221686 0.399025 0.178794
14161 1 0.435725 0.429667 0.140263
12168 1 0.392218 0.480325 0.0980579
1225 1 0.454928 0.387303 0.213522
5331 1 0.34823 0.454237 0.176723
5840 1 0.406308 0.448526 0.146482
12654 1 0.0561368 0.0308154 0.196504
8338 1 0.10495 0.109947 0.163045
4094 1 0.10443 0.0564465 0.282369
7304 1 0.157388 0.0581465 0.328601
9423 1 0.144425 0.0259027 0.114855
141 1 0.00393783 0.231577 0.102339
11911 1 0.0461844 0.483875 0.0478068
4412 1 0.134431 0.0665228 0.213419
4485 1 0.328326 0.0234851 0.396593
391 1 0.0451376 0.037244 0.282387
1416 1 0.0486697 0.286564 0.226527
4400 1 0.149938 0.164867 0.194822
9001 1 0.0216984 0.0718725 0.214279
1867 1 0.142567 0.0934138 0.320485
8645 1 0.101228 0.0850972 0.205656
1727 1 0.0721088 0.0820055 0.288994
2497 1 0.211454 0.462075 0.461154
444 1 0.145968 0.312326 0.0225357
11021 1 0.153079 0.0279721 0.237293
11437 1 0.174938 0.047606 0.29268
12110 1 0.000413168 0.138221 0.421346
5439 1 0.208147 0.104718 0.292777
15133 1 0.11148 0.104454 0.378954
9177 1 0.460377 0.401054 0.0941084
1070 1 0.120691 0.0854662 0.249746
5429 1 0.0788105 0.102341 0.259125
5027 1 0.167445 0.0475502 0.362424
1593 1 0.0788928 0.213973 0.461831
4332 1 0.153612 0.0604577 0.168098
4811 1 0.102174 0.0906696 0.123121
4957 1 0.460798 0.0740134 0.315618
8027 1 0.144475 0.0324516 0.310607
15623 1 0.192409 0.0798006 0.350073
5964 1 0.337613 0.072824 0.276218
5674 1 0.21391 0.0484838 0.30542
10624 1 0.0143242 0.433519 0.0157578
14193 1 0.191469 0.0579576 0.166963
1157 1 0.184491 0.0675648 0.257885
6025 1 0.271675 0.0127533 0.33643
4942 1 0.256139 0.0815957 0.302717