ITEM: TIMESTEP
10000
ITEM: NUMBER OF ATOMS
16384
ITEM: BOX BOUNDS pp pp pp
0.0000000000000000e+00 8.0764399999999995e+01
0.0000000000000000e+00 8.0764399999999995e+01
0.0000000000000000e+00 8.0764399999999995e+01
ITEM: ATOMS id type xs ys zs
2086 1 0.483319 0.349266 0.0173886
12018 1 0.00156004 0.0716999 0.0356923
3255 1 0.0597201 0.0605957 0.054504
9977 1 0.0482114 0.0195791 0.426718
2045 1 0.0867155 0.200443 0.0323715
7342 1 0.0522687 0.0341968 0.147599
4273 1 0.30084 0.486581 0.484553
9844 1 0.0779686 0.0870396 0.037455
1423 1 0.0954019 0.0652415 0.0683508
4637 1 0.0284307 0.0621565 0.0865924
11886 1 0.479364 0.0575635 0.104968
3963 1 0.131384 0.397582 0.0261362
13895 1 0.0456132 0.0359147 0.00396453
2748 1 0.106978 0.101419 0.0636014
10402 1 0.0348538 0.0986314 0.0927277
2229 1 0.224471 0.407444 0.0483556
10769 1 0.0347367 0.445181 0.0379831
10568 1 0.47806 0.460375 0.433333
5695 1 0.157031 0.0530671 0.0148451
1136 1 0.126362 0.0328327 0.108064
7857 1 0.143888 0.0656237 0.112427
5641 1 0.352417 0.0112239 0.0532801
4206 1 0.395566 0.490342 0.276825
3610 1 0.128398 0.130169 0.0618079
2675 1 0.107141 0.176035 0.00584888
3881 1 0.320328 0.259424 0.0193037
4841 1 0.0080131 0.160659 0.459416
13693 1 0.0819918 0.0505151 0.0203081
1197 1 0.0925143 0.487841 0.41029
9143 1 0.0123611 0.47155 0.174222
5788 1 0.266914 0.0717543 0.381404
1031 1 0.220833 0.0018282 0.299942
5715 1 0.134129 0.0267216 0.0479165
8690 1 0.000457497 0.30987 0.446954
2706 1 0.217752 0.0721346 0.106123
70 1 0.268343 0.109309 0.072083
1810 1 0.278141 0.0346735 0.324169
5170 1 0.253786 0.0359896 0.0965864
553 1 0.159436 0.489156 0.41678
1274 1 0.294046 0.0500908 0.0829346
9075 1 0.0203868 0.117108 0.424294
3451 1 0.249308 0.271631 0.0256167
1479 1 0.0161308 0.14103 0.199331
5604 1 0.176054 0.0460811 0.0589839
5999 1 0.298756 0.0900937 0.12593
3085 1 0.237349 0.0838958 0.0659023
555 1 0.304078 0.0483627 0.119634
128 1 0.19874 0.497106 0.17206
15320 1 0.439537 0.0623581 0.469412
1851 1 0.279577 0.0677486 0.0548849
504 1 0.459531 0.126555 0.0855402
720 1 0.323131 0.0653853 0.0597204
906 1 0.433597 0.0348188 0.050658
3792 1 0.444919 0.107879 0.477098
4471 1 0.248924 0.0480577 0.0508574
1754 1 0.360873 0.121546 0.071259
448 1 0.394532 0.0849257 0.0826101
3670 1 0.362598 0.375574 0.037665
219 1 0.386812 0.0528377 0.10301
1756 1 0.337175 0.144171 0.0921943
912 1 0.342084 0.091956 0.117799
4651 1 0.352634 0.0669934 0.0861353
13058 1 0.459775 0.318121 0.127888
3032 1 0.380335 0.409967 0.0214528
955 1 0.363806 0.0260288 0.0845208
6537 1 0.0537058 0.0532384 0.442531
1560 1 0.312643 0.0131005 0.0383439
6096 1 0.0919179 0.0118277 0.475806
10693 1 0.492739 0.351331 0.258944
701 1 0.497565 0.0613551 0.00143384
14986 1 0.273893 0.471559 0.00971236
14791 1 0.465088 0.0361171 0.0748968
2809 1 0.170796 0.281751 0.0380938
8124 1 0.194713 0.0564005 0.447828
698 1 0.365742 0.295122 0.0201227
8363 1 0.343008 0.162929 0.497623
12322 1 0.376276 0.0946226 0.0458989
164 1 0.420404 0.125319 0.0953297
5572 1 0.425359 0.0861047 0.0600347
5479 1 0.265892 0.0163993 0.122485
4318 1 0.420063 0.0785858 0.0190799
5653 1 0.325601 0.0105255 0.119583
1881 1 0.143941 0.170482 0.0260587
6307 1 0.221415 0.0240455 0.433987
1293 1 0.0818207 0.153235 0.100638
8014 1 0.084432 0.17738 0.066285
9469 1 0.0503159 0.189635 0.0824629
9991 1 0.0665727 0.11866 0.08131
1351 1 0.102171 0.0619353 0.106668
532 1 0.274296 0.068901 0.0134088
2713 1 0.0332085 0.186585 0.197723
1159 1 0.122842 0.139852 0.11104
1848 1 0.405535 0.0312646 0.430496
9987 1 0.00153814 0.367022 0.222197
2502 1 0.0760468 0.121439 0.0256722
8909 1 0.00814551 0.162045 0.0661864
2 1 0.149935 0.090495 0.15374
861 1 0.118886 0.183392 0.0954057
6646 1 0.200789 0.290428 0.145908
3985 1 0.135462 0.242236 0.0969034
11127 1 0.11415 0.16625 0.0506137
6317 1 0.0747153 0.234194 0.132776
256 1 0.00864814 0.246516 0.333293
1808 1 0.236588 0.103996 0.0973049
4097 1 0.147366 0.114638 0.126815
1545 1 0.14113 0.175135 0.148542
3705 1 0.1545 0.152793 0.092795
1341 1 0.218956 0.0455699 0.0773739
1129 1 0.11837 0.217126 0.0748963
337 1 0.148541 0.1969 0.118172
7002 1 0.136503 0.133901 0.0212696
949 1 0.372993 0.0405496 0.212639
6059 1 0.274974 0.185105 0.0741986
773 1 0.1769 0.0929524 0.116972
10610 1 0.245715 0.193267 0.108531
1315 1 0.204206 0.124365 0.0802247
11218 1 0.285583 0.19951 0.147978
2658 1 0.23858 0.0899475 0.023142
1378 1 0.285464 0.141433 0.0830366
10178 1 0.263858 0.140941 0.136204
3182 1 0.320421 0.15596 0.052139
1170 1 0.292771 0.164657 0.134879
753 1 0.177364 0.0450059 0.106228
420 1 0.180182 0.129973 0.112933
6562 1 0.243536 0.140111 0.0566693
2741 1 0.283184 0.141816 0.0412516
3460 1 0.172772 0.0769911 0.0820857
4202 1 0.296075 0.201148 0.102207
4080 1 0.307848 0.0921179 0.0317504
4938 1 0.110854 0.0313922 0.380773
3901 1 0.249169 0.144421 0.0183836
1388 1 0.423852 0.159838 0.082558
734 1 0.346964 0.11666 0.0325861
18 1 0.375555 0.178344 0.0195693
2550 1 0.326887 0.211166 0.150967
12133 1 0.0447357 0.182967 0.45264
1890 1 0.0102424 0.487828 0.430163
3542 1 0.322058 0.108658 0.0610218
407 1 0.350814 0.180768 0.157769
13773 1 0.388157 0.149032 0.0878571
1115 1 0.488782 0.262008 0.266886
1358 1 0.359807 0.166674 0.0606255
951 1 0.363794 0.176526 0.100423
8272 1 0.353358 0.201311 0.0378192
9950 1 0.0120169 0.172873 0.1092
12642 1 0.38028 0.0373349 0.144024
610 1 0.489398 0.441091 0.206311
3026 1 0.470123 0.165434 0.0297827
4475 1 0.305522 0.0515959 0.0295369
1061 1 0.439946 0.19663 0.07427
2425 1 0.471591 0.169993 0.0836547
1214 1 0.441373 0.14429 0.0454399
7352 1 0.247584 0.0270472 0.0157172
6213 1 0.0176086 0.00865314 0.0131797
2527 1 0.404351 0.153545 0.0351673
3392 1 0.394329 0.186096 0.0604305
264 1 0.156619 0.494185 0.368484
9043 1 0.0332611 0.0577439 0.275312
1796 1 0.242996 0.00534385 0.377124
2154 1 0.0570371 0.292812 0.0433189
2293 1 0.131523 0.201286 0.0386566
7263 1 0.0773315 0.256305 0.0543922
2575 1 0.221122 0.249307 0.0272444
854 1 0.462046 0.41864 0.120769
10574 1 0.100012 0.310624 0.0387566
28 1 0.207707 0.272036 0.0502404
3748 1 0.0312769 0.261964 0.0192656
752 1 0.0771333 0.214484 0.0680617
14865 1 0.039049 0.260397 0.0578435
1922 1 0.0881847 0.239201 0.0190831
1605 1 0.0499783 0.181751 0.0426459
9212 1 0.0557595 0.492449 0.384168
7624 1 0.258419 0.0154048 0.411904
1970 1 0.00885595 0.192603 0.0439203
618 1 0.0903156 0.00525116 0.288119
10070 1 0.0866012 0.246988 0.0956247
17 1 0.205736 0.327486 0.141037
778 1 0.18064 0.258744 0.07571
2291 1 0.109899 0.268681 0.0783743
11295 1 0.116422 0.240214 0.0479519
5850 1 0.0708028 0.273881 0.0104317
2241 1 0.151821 0.27716 0.0927387
3059 1 0.20229 0.292002 0.0899665
2776 1 0.225561 0.328186 0.0706828
3544 1 0.149211 0.229944 0.017223
3312 1 0.48992 0.438202 0.0428322
470 1 0.213598 0.239984 0.0685245
3650 1 0.176165 0.186065 0.0386063
11157 1 0.155465 0.209714 0.0682941
13468 1 0.170213 0.231363 0.0992925
11258 1 0.148902 0.252752 0.062873
2009 1 0.31203 0.267838 0.0795248
6685 1 0.257924 0.179992 0.0373945
2379 1 0.196954 0.207692 0.0639891
7542 1 0.259448 0.341898 0.0849015
1615 1 0.232652 0.175756 0.0739528
729 1 0.28399 0.231599 0.126315
7529 1 0.261524 0.262734 0.068818
3959 1 0.244363 0.21511 0.0346803
1483 1 0.220379 0.169776 0.126987
3876 1 0.235892 0.29204 0.0713078
1199 1 0.228087 0.260882 0.096414
2763 1 0.26596 0.306566 0.0984186
1109 1 0.194623 0.149032 0.147795
1434 1 0.237221 0.147772 0.0952865
8442 1 0.470822 0.0100647 0.24818
2681 1 0.294542 0.284255 0.0324614
254 1 0.317955 0.200214 0.0578888
3387 1 0.295485 0.0428157 0.451745
11122 1 0.406923 0.260917 0.0573563
3155 1 0.279543 0.22589 0.0729795
1876 1 0.355739 0.245939 0.0272838
963 1 0.365776 0.338825 0.0579856
13712 1 0.459006 0.494556 0.418188
9192 1 0.0497592 0.153008 0.0643271
7166 1 0.394262 0.00803721 0.054231
3076 1 0.40517 0.278342 0.0234557
2851 1 0.366024 0.349555 0.0985242
1840 1 0.367473 0.217721 0.00275689
2334 1 0.147052 0.451728 0.025518
879 1 0.297608 0.17524 0.016191
671 1 0.361492 0.21547 0.125435
1206 1 0.303537 0.243444 0.0519091
2766 1 0.429947 0.38678 0.00670418
1245 1 0.434214 0.174238 0.017576
512 1 0.011072 0.0963752 0.322701
4746 1 0.48536 0.247066 0.0485886
2493 1 0.456501 0.216226 0.035153
2494 1 0.477733 0.204678 0.0607761
2373 1 0.424118 0.303224 0.0591335
14500 1 0.155285 0.486854 0.467081
13624 1 0.327743 0.0332328 0.0742799
1320 1 0.445954 0.48893 0.375593
3467 1 0.386844 0.219585 0.0419278
8402 1 0.435009 0.308535 0.0238445
771 1 0.417832 0.233676 0.0285902
9509 1 0.481404 0.269097 0.479792
2461 1 0.363012 0.0494625 0.0501334
2619 1 0.349108 0.462551 0.0408604
9378 1 0.0388824 0.461524 0.272873
384 1 0.00695592 0.314891 0.112671
4283 1 0.0880175 0.487792 0.489774
132 1 0.0168696 0.293875 0.371054
2384 1 0.0454734 0.341403 0.0730736
1016 1 0.049848 0.413116 0.0227698
7093 1 0.31868 0.220896 0.0231362
8800 1 0.0701708 0.100801 0.487319
10050 1 0.00372365 0.347216 0.0269868
3352 1 0.177767 0.000760437 0.12185
3361 1 0.0713495 0.330123 0.016876
272 1 0.045433 0.480559 0.0705891
5370 1 0.342685 0.00738178 0.351017
10422 1 0.0816192 0.412897 0.0530904
2146 1 0.248732 0.242662 0.00266016
3278 1 0.478929 0.262508 0.401295
2734 1 0.00205177 0.105562 0.226531
8484 1 0.480367 0.273133 0.154045
3439 1 0.335544 0.436515 0.0721147
3667 1 0.133518 0.292825 0.0663837
2036 1 0.170895 0.305736 0.077875
2589 1 0.178778 0.298567 0.118227
6689 1 0.121602 0.390954 0.0624293
621 1 0.198833 0.336421 0.0385669
1270 1 0.196967 0.327552 0.101519
4143 1 0.14582 0.336199 0.0591158
1455 1 0.14882 0.413433 0.124743
897 1 0.118754 0.39652 0.104823
3948 1 0.165938 0.379587 0.0447847
16171 1 0.186141 0.354504 0.071866
2329 1 0.109991 0.355179 0.133435
366 1 0.478096 0.332265 0.0858567
3446 1 0.153593 0.409135 0.0850857
4366 1 0.165325 0.403967 0.161614
1905 1 0.148419 0.418979 0.0515988
706 1 0.187181 0.404958 0.0723465
3709 1 0.306647 0.390718 0.0388997
10892 1 0.324353 0.309913 0.0707237
3024 1 0.231589 0.389385 0.141205
2724 1 0.277154 0.38204 0.141468
3903 1 0.228725 0.372459 0.0882137
12787 1 0.493375 0.424462 0.147059
2594 1 0.333918 0.27852 0.0505082
2914 1 0.288731 0.415417 0.0175867
3849 1 0.300139 0.338299 0.0676679
10752 1 0.268936 0.00416009 0.448607
87 1 0.299439 0.355833 0.102076
3520 1 0.288636 0.321944 0.0288554
3001 1 0.258603 0.31773 0.0558634
1899 1 0.497515 0.121408 0.212812
2260 1 0.362006 0.336414 0.0196917
2661 1 0.302583 0.309977 0.100594
2939 1 0.476055 0.0795324 0.464697
1668 1 0.397045 0.365167 0.0845012
2696 1 0.331405 0.378724 0.105467
8798 1 0.499049 0.295416 0.247017
4220 1 0.302043 0.427443 0.0551262
5456 1 0.366123 0.322564 0.125054
10997 1 0.332612 0.337605 0.0923194
12743 1 0.342444 0.366759 0.0697164
4484 1 0.177488 0.14924 0.0383222
9276 1 0.412204 0.416558 0.129913
1475 1 0.330176 0.30712 0.0284589
3736 1 0.395694 0.405736 0.0989757
5123 1 0.446819 0.358228 0.0326024
6109 1 0.427785 0.00816874 0.285106
2522 1 0.460571 0.293555 0.0656852
969 1 0.402233 0.370603 0.0430176
2710 1 0.456463 0.329962 0.0496201
922 1 0.398762 0.32279 0.0334756
8367 1 0.355833 0.362328 0.151473
489 1 0.428812 0.346132 0.0653366
12385 1 0.0195311 0.0752906 0.450869
9641 1 0.471171 0.404146 0.0677105
5011 1 0.481249 0.378025 0.101046
1015 1 0.270908 0.111896 0.0260717
9252 1 0.480003 0.283978 0.0972129
8172 1 0.305345 0.0314777 0.398664
13457 1 0.488825 0.0128256 0.312779
5424 1 0.447963 0.00217466 0.0396812
3163 1 0.472333 0.365325 0.0596279
9786 1 0.124044 0.475604 0.441737
9338 1 0.0254902 0.150078 0.408095
3943 1 0.0526649 0.482956 0.0015954
2451 1 0.45678 0.441322 0.186437
1478 1 0.0282556 0.498191 0.152935
6556 1 0.309656 0.0350037 0.499077
8981 1 0.0727628 0.49612 0.0909322
6810 1 0.172606 0.0218788 0.480577
10903 1 0.128315 0.492835 0.0591912
4142 1 0.125333 0.0544476 0.479489
1973 1 0.378515 0.299523 0.0547045
4894 1 0.22302 0.478757 0.143206
7944 1 0.129238 0.450655 0.112815
8892 1 0.477372 0.292809 0.287949
2356 1 0.0651624 0.442635 0.0680213
10467 1 0.0129193 0.124097 0.163806
3066 1 0.142285 0.311076 0.0272552
12176 1 0.197653 0.496599 0.48694
9753 1 0.0380487 0.311714 0.324275
3938 1 0.493729 0.395783 0.493496
1189 1 0.120856 0.446046 0.0672138
7566 1 0.25016 0.00401836 0.334577
9260 1 0.154964 0.461835 0.0636512
13544 1 0.165329 0.496346 0.0259346
6544 1 0.0942006 0.471039 0.057255
2554 1 0.0998878 0.424559 0.130451
10213 1 0.477788 0.313961 0.0134027
3949 1 0.215023 0.12599 0.00251851
4118 1 0.109362 0.476712 0.0947144
3834 1 0.206597 0.470375 0.0921587
9620 1 0.0461079 0.129953 0.494934
3238 1 0.175367 0.493954 0.0609445
3757 1 0.49593 0.349394 0.216332
1384 1 0.485092 0.0903259 0.286765
2880 1 0.18336 0.440248 0.0900355
84 1 0.225298 0.406486 0.0949401
2420 1 0.189805 0.46283 0.156261
15244 1 0.356712 0.00649356 0.427533
2388 1 0.0630545 0.428281 0.142793
6905 1 0.268811 0.462903 0.177536
4743 1 0.255127 0.46021 0.140118
1554 1 0.303649 0.402488 0.106991
1042 1 0.284549 0.423484 0.137794
6574 1 0.0275643 0.0644469 0.169346
7524 1 0.318746 0.401113 0.0753308
1508 1 0.142365 0.479947 0.00398368
1683 1 0.212124 0.442204 0.115312
9233 1 0.339405 0.0108177 0.27025
6815 1 0.2084 0.487761 0.0325905
2374 1 0.235031 0.477575 0.0607455
8137 1 0.251647 0.425646 0.0794142
2044 1 0.290982 0.378659 0.00456817
13133 1 0.31301 0.00361037 0.427537
206 1 0.355067 0.468268 0.079263
1532 1 0.350541 0.408595 0.0446779
9415 1 0.0945612 0.393382 0.495193
317 1 0.378555 0.436071 0.0542079
5891 1 0.31641 0.466466 0.0834452
762 1 0.499267 0.233492 0.113957
10395 1 0.393417 0.400626 0.0605772
500 1 0.332186 0.433337 0.107996
3463 1 0.362156 0.41044 0.0860897
1352 1 0.16075 0.456125 0.275774
2055 1 0.286251 0.434902 0.0931827
76 1 0.414099 0.0388651 0.0178825
4642 1 0.30049 0.460204 0.0484846
5816 1 0.443487 0.476572 0.19392
5810 1 0.0106586 0.481367 0.390703
5844 1 0.388219 0.475266 0.465306
1143 1 0.484561 0.235914 0.367142
3162 1 0.454348 0.433633 0.0380631
10076 1 0.448229 0.435357 0.0857861
13882 1 0.382817 0.445254 0.0983153
6813 1 0.433747 0.39363 0.0974692
5538 1 0.420306 0.0128617 0.123584
12240 1 0.396745 0.468109 0.0616929
10126 1 0.411218 0.43143 0.0711769
5809 1 0.417931 0.461624 0.116157
3319 1 0.435847 0.38552 0.0598315
4173 1 0.463283 0.188108 0.386866
7472 1 0.462958 0.201213 0.474583
11506 1 0.188055 0.249575 0.0118082
386 1 0.200691 0.486744 0.375016
4353 1 0.0667868 0.0425959 0.10634
4899 1 0.340576 0.0777272 0.0281427
4794 1 0.0298706 0.113019 0.127523
13880 1 0.0402803 0.0653287 0.13115
1803 1 0.126268 0.053363 0.143259
5815 1 0.0901947 0.112843 0.120659
2277 1 0.0622125 0.0124572 0.0373608
12501 1 0.341395 0.0357749 0.021284
1200 1 0.083753 0.109251 0.160329
9186 1 0.0706828 0.0807607 0.0950897
10144 1 0.0648835 0.408034 0.475586
2584 1 0.195855 0.212018 0.0147711
9684 1 0.0829658 0.0785552 0.221848
4239 1 0.466598 0.395101 0.0337833
6108 1 0.275216 0.0301442 0.369916
12291 1 0.47442 0.0481839 0.312798
14017 1 0.439629 0.442894 0.41533
4742 1 0.228316 0.047848 0.137579
1186 1 0.147555 0.0615784 0.176514
9305 1 0.117181 0.0307414 0.171873
3999 1 0.490815 0.224162 0.011772
5875 1 0.154289 0.0214842 0.189829
1440 1 0.115065 0.0912913 0.136974
4856 1 0.117308 0.095799 0.172509
12441 1 0.219504 0.104739 0.169628
408 1 0.218561 0.0777996 0.203135
4848 1 0.137693 0.0997829 0.090886
5542 1 0.18642 0.0511055 0.186606
4307 1 0.219878 0.0332243 0.174648
186 1 0.181789 0.0862689 0.176581
8837 1 0.195526 0.0190895 0.15324
6061 1 0.138742 0.0598793 0.0767382
1919 1 0.0511415 0.431991 0.254103
2872 1 0.0277947 0.408152 0.482777
5532 1 0.262929 0.0769396 0.0994992
550 1 0.168064 0.047005 0.141018
4251 1 0.00195419 0.0416629 0.188812
4996 1 0.243682 0.1307 0.198921
1670 1 0.234545 0.0831645 0.134616
382 1 0.228234 0.119806 0.127172
1241 1 0.291512 0.0989049 0.165648
4472 1 0.0908866 0.0343395 0.13424
5000 1 0.325128 0.0589516 0.150216
5413 1 0.125072 0.0245675 0.251759
1883 1 0.256213 0.11448 0.163636
1124 1 0.238662 0.0690535 0.170899
74 1 0.184877 0.0841988 0.226623
632 1 0.2394 0.100174 0.227843
4632 1 0.254805 0.0274137 0.157553
565 1 0.17549 0.109846 0.0183566
4042 1 0.425401 0.114911 0.185115
12304 1 0.343054 0.0367236 0.31202
3837 1 0.421155 0.0479984 0.147982
616 1 0.281388 0.0540687 0.170136
8514 1 0.308031 0.0874884 0.0915038
5925 1 0.347399 0.0464935 0.115607
6249 1 0.232705 0.00444806 0.0410968
10087 1 0.473294 0.402815 0.320878
1034 1 0.406368 0.0873897 0.136917
1693 1 0.370241 0.0718481 0.137997
9791 1 0.317055 0.072548 0.191332
5828 1 0.351947 0.0716386 0.174513
12260 1 0.418554 0.0720529 0.188212
6075 1 0.446264 0.180676 0.110006
5781 1 0.336917 0.496695 0.149675
12517 1 0.470224 0.0637146 0.139679
1289 1 0.456093 0.0985237 0.108823
12311 1 0.456552 0.0882764 0.164034
5742 1 0.43891 0.112336 0.137935
5918 1 0.411614 0.124669 0.0553305
1904 1 0.485042 0.0227958 0.117235
2560 1 0.422884 0.45407 0.0409004
6065 1 0.0160235 0.228998 0.0137229
11088 1 0.224022 0.10582 0.490083
154 1 0.237593 0.164927 0.495063
4615 1 0.263798 0.0156015 0.193307
4604 1 0.257269 0.123321 0.49457
3445 1 0.488815 0.100775 0.148453
13042 1 0.457316 0.0746956 0.0776562
935 1 0.0416144 0.0984044 0.159813
4234 1 0.0408552 0.0764339 0.223364
1210 1 0.160269 0.023106 0.0811068
2270 1 0.492778 0.215352 0.461978
10135 1 0.00430664 0.187838 0.173301
672 1 0.096709 0.118633 0.218598
1580 1 0.0210357 0.134053 0.244695
8964 1 0.0520226 0.166455 0.126587
279 1 0.043792 0.141176 0.0990808
94 1 0.0619237 0.113221 0.205234
8476 1 0.112807 0.0603241 0.196617
1520 1 0.0656371 0.213978 0.21759
3848 1 0.025252 0.211276 0.227033
6225 1 0.332002 0.430784 0.0238435
1522 1 0.213256 0.0255904 0.267929
4729 1 0.135929 0.0868266 0.0085509
11116 1 0.0919311 0.174087 0.142978
7552 1 0.179066 0.169428 0.122026
3643 1 0.131188 0.236416 0.144172
4786 1 0.119157 0.125585 0.189036
3432 1 0.111394 0.161731 0.169279
7622 1 0.0610964 0.132287 0.140048
1437 1 0.183027 0.111622 0.14907
8359 1 0.0711774 0.258905 0.202607
165 1 0.179051 0.233702 0.194202
5371 1 0.173013 0.224742 0.145843
4040 1 0.111934 0.134013 0.144804
1009 1 0.260953 0.287547 0.158376
6008 1 0.11394 0.205438 0.159204
5147 1 0.146194 0.127979 0.165629
446 1 0.0882875 0.249336 0.168947
514 1 0.193963 0.193129 0.144856
486 1 0.194731 0.258927 0.113542
13596 1 0.173729 0.171062 0.184165
8831 1 0.268768 0.163356 0.178313
1382 1 0.208544 0.205835 0.104039
834 1 0.266912 0.165992 0.105705
5774 1 0.251348 0.177856 0.145937
589 1 0.233557 0.148788 0.156354
5576 1 0.246933 0.198171 0.177949
4314 1 0.253004 0.233059 0.104941
4769 1 0.167271 0.296461 0.157205
1032 1 0.217519 0.216465 0.16209
308 1 0.317998 0.175972 0.173209
1151 1 0.153718 0.128131 0.207466
1257 1 0.280714 0.117163 0.111979
1652 1 0.271263 0.167831 0.25536
1951 1 0.213965 0.182366 0.177332
853 1 0.177413 0.135378 0.184063
447 1 0.282924 0.132355 0.197156
182 1 0.252151 0.170475 0.220535
722 1 0.316952 0.104548 0.209113
3774 1 0.314822 0.233713 0.0958689
892 1 0.368694 0.140672 0.115439
1391 1 0.367183 0.1147 0.146057
4776 1 0.402092 0.184443 0.10001
204 1 0.293561 0.135403 0.157668
1119 1 0.319195 0.145243 0.21003
1365 1 0.394615 0.178198 0.176814
8779 1 0.317164 0.122085 0.12867
14050 1 0.416944 0.146451 0.125047
134 1 0.438906 0.15047 0.18919
1968 1 0.334373 0.173167 0.128908
1517 1 0.305045 0.226529 0.210776
8668 1 0.336595 0.141463 0.152362
392 1 0.363951 0.170322 0.207846
1296 1 0.388963 0.106894 0.112051
6328 1 0.475759 0.0035268 0.00426751
5444 1 0.395337 0.0395981 0.177715
10651 1 0.0122512 0.419556 0.0201563
5599 1 0.482211 0.198073 0.133092
9417 1 0.469131 0.216182 0.0987186
5318 1 0.402235 0.12892 0.156667
5150 1 0.0292574 0.139944 0.0306674
4670 1 0.00612489 0.490631 0.331607
3283 1 0.117032 0.278626 0.029337
12695 1 0.462761 0.17085 0.153875
14093 1 0.492696 0.163509 0.115535
886 1 0.375279 0.159446 0.148752
566 1 0.480449 0.124655 0.019405
1019 1 0.39871 0.214597 0.190881
374 1 0.431068 0.217748 0.119915
1248 1 0.411139 0.221984 0.0711099
7442 1 0.226729 0.371687 0.486369
2134 1 0.179562 0.236728 0.0436283
8692 1 0.455185 0.144428 0.125715
6009 1 0.196403 0.0184848 0.0409141
10119 1 0.0756395 0.202703 0.105527
9646 1 0.0272089 0.266279 0.108815
930 1 0.049808 0.232435 0.101714
4643 1 0.0399529 0.245056 0.153189
4164 1 0.0612941 0.279167 0.149833
2969 1 0.110722 0.219614 0.115288
1234 1 0.0387725 0.307787 0.132305
280 1 0.0157108 0.230214 0.126901
8391 1 0.0587284 0.283667 0.0900594
1139 1 0.17032 0.265548 0.240438
9201 1 0.0559071 0.302249 0.207412
9463 1 0.0362102 0.182753 0.4945
232 1 0.0568937 0.342893 0.128467
2378 1 0.0307059 0.228747 0.185411
9479 1 0.00995834 0.283866 0.140257
4000 1 0.227475 0.2589 0.239456
2576 1 0.157489 0.266762 0.131071
641 1 0.129705 0.289529 0.119202
1162 1 0.149032 0.372527 0.1342
3148 1 0.111839 0.326625 0.0788095
1530 1 0.144083 0.223462 0.187795
1743 1 0.0561895 0.187045 0.153904
5896 1 0.201075 0.25559 0.171442
3878 1 0.12372 0.2821 0.16386
5568 1 0.186577 0.281807 0.194359
141 1 0.102891 0.263268 0.135274
3141 1 0.130033 0.325057 0.151879
1640 1 0.134785 0.306321 0.228483
8496 1 0.05787 0.310801 0.170492
1784 1 0.139521 0.321828 0.189455
953 1 0.142227 0.238067 0.237621
11831 1 0.159606 0.260197 0.167322
1371 1 0.273501 0.265301 0.108286
1193 1 0.150596 0.174965 0.0615467
1312 1 0.300782 0.259964 0.191894
1463 1 0.249179 0.219469 0.139923
797 1 0.26462 0.243883 0.235159
1788 1 0.254226 0.314291 0.197072
587 1 0.228508 0.309681 0.111018
1656 1 0.329426 0.255112 0.163546
710 1 0.231164 0.284485 0.188375
1389 1 0.272245 0.278607 0.244373
5243 1 0.22321 0.243542 0.12965
1073 1 0.196113 0.356689 0.216914
1103 1 0.324353 0.240095 0.277896
1625 1 0.295296 0.299584 0.143428
2925 1 0.240775 0.306473 0.245297
11992 1 0.269568 0.281145 0.200785
1927 1 0.24101 0.256511 0.161093
404 1 0.224112 0.240197 0.194758
1789 1 0.331854 0.223118 0.185945
10257 1 0.33817 0.203912 0.10113
5003 1 0.338617 0.232782 0.0644267
2556 1 0.292053 0.230207 0.16657
2669 1 0.377293 0.249051 0.184622
1101 1 0.393042 0.28906 0.0881253
1818 1 0.31401 0.173077 0.0863048
3594 1 0.345347 0.256663 0.0948118
1346 1 0.334021 0.17047 0.014853
663 1 0.332298 0.239761 0.129657
686 1 0.328142 0.189398 0.211653
12740 1 0.399943 0.26772 0.162114
1716 1 0.372288 0.221729 0.161553
1231 1 0.301643 0.259492 0.237813
1979 1 0.336822 0.241766 0.230422
1750 1 0.36697 0.256542 0.139394
5468 1 0.486632 0.28883 0.362204
54 1 0.42063 0.254318 0.191767
12310 1 0.443734 0.253282 0.0509778
3821 1 0.46238 0.253346 0.0817162
252 1 0.44707 0.210616 0.161959
9370 1 0.397469 0.236032 0.137329
5458 1 0.403328 0.475588 0.319799
1444 1 0.435469 0.244403 0.144902
8839 1 0.440133 0.30146 0.218083
6656 1 0.366802 0.215304 0.0790553
10139 1 0.426581 0.251797 0.105782
1680 1 0.430314 0.291359 0.104397
116 1 0.392478 0.1986 0.140025
1086 1 0.442869 0.324531 0.172923
8559 1 0.440016 0.361296 0.176125
46 1 0.0216289 0.320443 0.185059
592 1 0.0853596 0.375345 0.117456
822 1 0.0223358 0.356282 0.107692
3082 1 0.0534199 0.370547 0.0498946
11643 1 0.0727646 0.316947 0.0627688
2056 1 0.247192 0.399877 0.0112884
1092 1 0.0871737 0.3491 0.0552225
9308 1 0.126541 0.360404 0.222136
3035 1 0.0226739 0.297008 0.0809778
714 1 0.159585 0.35096 0.173092
1613 1 0.0801523 0.321879 0.238137
89 1 0.0409729 0.380115 0.140073
10569 1 0.111539 0.364778 0.0850288
1495 1 0.0755513 0.342227 0.0932392
5986 1 0.00131534 0.0881158 0.373729
193 1 0.382594 0.0175347 0.0171248
9206 1 0.0402413 0.405257 0.0707122
1458 1 0.0824026 0.388277 0.199558
652 1 0.0839755 0.308073 0.13642
9731 1 0.155315 0.358665 0.0988212
1450 1 0.171014 0.33571 0.128698
3443 1 0.149971 0.28175 0.205629
1819 1 0.213348 0.316461 0.199262
3052 1 0.0957273 0.335095 0.168996
3841 1 0.156209 0.377463 0.201859
131 1 0.120997 0.389322 0.150347
8459 1 0.135794 0.334558 0.117908
55 1 0.104889 0.319734 0.203912
1955 1 0.202249 0.364129 0.113316
856 1 0.181255 0.404006 0.11487
12020 1 0.162568 0.396341 0.236975
8485 1 0.119816 0.367155 0.186425
3513 1 0.257787 0.381246 0.110773
2460 1 0.191174 0.376183 0.150872
965 1 0.251105 0.428395 0.118272
3504 1 0.189771 0.33448 0.175678
2244 1 0.305441 0.334254 0.155886
3704 1 0.268382 0.375025 0.0718808
9141 1 0.174936 0.336003 0.269191
1263 1 0.242534 0.350866 0.12729
2484 1 0.290076 0.307664 0.178967
1816 1 0.282873 0.329672 0.124956
3375 1 0.162016 0.35447 0.239091
1307 1 0.231236 0.313434 0.166358
406 1 0.322979 0.410429 0.181809
3991 1 0.264835 0.400155 0.214199
556 1 0.154161 0.444028 0.158229
5873 1 0.228929 0.38452 0.219922
835 1 0.213176 0.366246 0.183495
455 1 0.200962 0.400358 0.177677
9136 1 0.348799 0.385772 0.201671
173 1 0.313259 0.369777 0.137694
444 1 0.337216 0.267983 0.197651
3864 1 0.302582 0.265758 0.133179
1142 1 0.329643 0.293239 0.156955
9258 1 0.361396 0.308968 0.0875068
1598 1 0.388101 0.400726 0.199192
454 1 0.334853 0.341915 0.129606
2246 1 0.430826 0.353822 0.115101
3616 1 0.336167 0.282533 0.119256
800 1 0.370498 0.303199 0.176509
3369 1 0.374087 0.382389 0.119022
988 1 0.353438 0.34685 0.193841
1428 1 0.258922 0.338198 0.160284
5036 1 0.322391 0.361391 0.178042
619 1 0.34033 0.31987 0.232549
938 1 0.447136 0.291537 0.150424
13788 1 0.0191686 0.468232 0.306295
1642 1 0.440463 0.324459 0.0964199
11039 1 0.389096 0.240741 0.0937449
11075 1 0.386678 0.33672 0.1763
397 1 0.398897 0.325701 0.0878649
1975 1 0.428131 0.38442 0.14798
3570 1 0.376966 0.268287 0.216546
7842 1 0.367373 0.258153 0.0577584
1772 1 0.395457 0.304815 0.149335
3525 1 0.462048 0.355863 0.133931
810 1 0.47714 0.380125 0.241199
1723 1 0.383506 0.338005 0.217946
990 1 0.389888 0.349126 0.137124
648 1 0.489876 0.3847 0.139595
1454 1 0.472972 0.343141 0.166883
13225 1 0.0926415 0.461816 0.221792
63 1 0.0616189 0.285364 0.308098
10005 1 0.0838439 0.381196 0.160879
8341 1 0.418148 0.469877 0.389604
1106 1 0.0281817 0.482649 0.118619
1791 1 0.181132 0.465408 0.349774
2399 1 0.0388286 0.460601 0.148573
1589 1 0.0422146 0.37524 0.207582
1367 1 0.0744995 0.412185 0.0976957
1891 1 0.0942613 0.419733 0.168663
1995 1 0.0195524 0.432468 0.186158
6952 1 0.0883466 0.421522 0.21913
9836 1 0.393361 0.326439 0.496698
5489 1 0.105911 0.487509 0.137818
10009 1 0.492542 0.0253629 0.376907
13716 1 0.432978 0.498537 0.122077
8609 1 0.464565 0.194297 0.428882
109 1 0.172551 0.494575 0.132662
952 1 0.0827698 0.459942 0.123798
3559 1 0.167554 0.471252 0.0988484
5154 1 0.107785 0.454084 0.150396
3049 1 0.17076 0.446782 0.12572
1249 1 0.203255 0.419439 0.148671
8925 1 0.487252 0.423343 0.238307
13964 1 0.469411 0.425545 0.441946
869 1 0.141695 0.476047 0.135875
1216 1 0.375561 0.383203 0.474946
1972 1 0.128057 0.402455 0.184291
850 1 0.245451 0.182353 0.459925
3697 1 0.0836173 0.46664 0.178607
884 1 0.274854 0.474875 0.0711225
2753 1 0.455785 0.107732 0.0415591
2886 1 0.249475 0.386568 0.176039
11199 1 0.494782 0.378036 0.444944
885 1 0.231874 0.440173 0.165845
189 1 0.309116 0.38172 0.217335
3659 1 0.234076 0.477129 0.179663
2214 1 0.257885 0.493541 0.206914
5504 1 0.255587 0.35185 0.195121
9542 1 0.4959 0.363287 0.337595
450 1 0.239408 0.471262 0.106248
6030 1 0.268311 0.426668 0.171765
9100 1 0.254729 0.437825 0.204774
626 1 0.204758 0.434177 0.190424
10221 1 0.48125 0.08444 0.3343
1243 1 0.388139 0.445397 0.147844
6534 1 0.305391 0.444052 0.16771
12646 1 0.429994 0.0169032 0.165281
2744 1 0.165986 0.12017 0.0690014
143 1 0.353067 0.471085 0.119534
9779 1 0.333716 0.463654 0.190917
11010 1 0.0305431 0.486467 0.0367035
2676 1 0.372573 0.417677 0.12536
2150 1 0.267621 0.190135 0.0035156
1190 1 0.288231 0.379913 0.18294
5829 1 0.352879 0.436237 0.247765
4515 1 0.351201 0.482443 0.458472
1303 1 0.338115 0.358815 0.223341
9279 1 0.393373 0.38403 0.164683
10132 1 0.489291 0.156649 0.290476
217 1 0.319901 0.41081 0.135165
325 1 0.311307 0.459043 0.126694
677 1 0.392923 0.413813 0.234812
4232 1 0.0978221 0.0459425 0.446611
13018 1 0.374581 0.436736 0.181185
14028 1 0.184229 0.0756828 0.0368563
6708 1 0.240166 0.205989 0.487898
9184 1 0.0732829 0.00590967 0.119088
8554 1 0.350817 0.432495 0.152525
14227 1 0.494645 0.416455 0.181281
457 1 0.359845 0.396457 0.163048
13449 1 0.423396 0.423831 0.205118
8783 1 0.462129 0.457857 0.115196
12021 1 0.459755 0.407867 0.159765
10230 1 0.444544 0.451421 0.148209
4652 1 0.404451 0.35977 0.197864
3688 1 0.312951 0.134711 0.0137402
9487 1 0.049818 0.0240457 0.0713543
6700 1 0.266588 0.30072 0.00532519
2901 1 0.269753 0.470232 0.27557
793 1 0.434309 0.397585 0.183303
2693 1 0.215539 0.332549 0.0074271
9455 1 0.0714217 0.0337184 0.262615
4916 1 0.097331 0.0746982 0.314557
2061 1 0.479532 0.347847 0.479933
3551 1 0.32173 0.280628 0.476432
5254 1 0.0635121 0.0784138 0.269711
4556 1 0.252724 0.0589739 0.275538
8753 1 0.0125174 0.403267 0.269075
13234 1 0.0974662 0.129962 0.278886
4403 1 0.0587053 0.0394348 0.18953
10063 1 0.070699 0.0458427 0.306041
9264 1 0.0030654 0.366693 0.34147
761 1 0.109212 0.0464651 0.286612
4275 1 0.0661496 0.00977211 0.331329
7465 1 0.492229 0.164572 0.492892
13292 1 0.196071 0.0691799 0.145007
4099 1 0.131424 0.131339 0.238913
5428 1 0.439994 0.134757 0.00640301
13537 1 0.00234266 0.00590656 0.281045
4323 1 0.1523 0.00706761 0.275866
8327 1 0.0824393 0.10629 0.250687
473 1 0.331734 0.390057 0.012121
8812 1 0.126109 0.0934602 0.207791
5384 1 0.176789 0.0482305 0.245767
4208 1 0.0823385 0.0542599 0.163581
14129 1 0.112996 0.0202148 0.216236
2446 1 0.134529 0.0896265 0.250885
400 1 0.117919 0.059771 0.236111
5436 1 0.155134 0.037799 0.306572
1063 1 0.143932 0.059753 0.272454
6384 1 0.184802 0.0460446 0.283236
6053 1 0.146834 0.119737 0.272933
843 1 0.169437 0.116285 0.240655
5272 1 0.0990246 0.0853847 0.277583
994 1 0.211075 0.065134 0.238719
5135 1 0.244435 0.0846921 0.331428
1213 1 0.242732 0.0475345 0.202472
1751 1 0.214165 0.138736 0.23701
146 1 0.149646 0.0633239 0.218041
585 1 0.0179359 0.264953 0.477348
110 1 0.292945 0.143795 0.235637
827 1 0.170711 0.0841052 0.270294
198 1 0.257386 0.0887359 0.192692
104 1 0.254891 0.0652745 0.234824
5635 1 0.0177447 0.108057 0.0122382
7705 1 0.336009 0.076098 0.279507
794 1 0.204406 0.0300012 0.218264
1572 1 0.427288 0.0550447 0.098
5389 1 0.317061 0.0461179 0.276679
692 1 0.306329 0.0169874 0.301221