ITEM: TIMESTEP
10000
ITEM: NUMBER OF ATOMS
16384
ITEM: BOX BOUNDS pp pp pp
0.0000000000000000e+00 8.0764399999999995e+01
0.0000000000000000e+00 8.0764399999999995e+01
0.0000000000000000e+00 8.0764399999999995e+01
ITEM: ATOMS id type xs ys zs
6586 1 0.0369156 0.132535 0.0187109
11350 1 0.0387648 0.185187 0.355043
5743 1 0.0855057 0.130982 0.0400214
2051 1 0.0544077 0.138456 0.0808701
425 1 0.0900347 0.492074 0.357967
5782 1 0.492668 0.0262194 0.212018
5584 1 0.155616 0.0441164 0.121985
4077 1 0.102053 0.074338 0.0257923
11862 1 0.490293 0.310281 0.34008
3519 1 0.0701221 0.225823 0.495575
5313 1 0.128158 0.103604 0.0277138
257 1 0.0706222 0.0903127 0.0525037
12696 1 0.0408393 0.0426274 0.0955771
1431 1 0.492928 0.349787 0.428121
9426 1 0.479741 0.136064 0.130235
9514 1 0.495309 0.0955516 0.325044
1245 1 0.0919466 0.0347643 0.107567
11893 1 0.19362 0.081037 0.0448689
8538 1 0.168288 0.048553 0.0628871
2915 1 0.230911 0.0327921 0.103868
14314 1 0.178207 0.116624 0.0698523
1744 1 0.323021 0.475424 0.316897
3247 1 0.259901 0.475843 0.446716
1882 1 0.330234 0.287925 0.0473196
11110 1 0.350195 0.364135 0.0361702
2742 1 0.0955873 0.138682 0.0749239
3001 1 0.0760461 0.0671354 0.085635
4877 1 0.044061 0.0607607 0.0567317
836 1 0.344974 0.436184 0.0417305
7529 1 0.193585 0.0469491 0.0168988
3282 1 0.141844 0.0858741 0.0601827
8194 1 0.0457571 0.412629 0.345027
3023 1 0.189777 0.034723 0.0957159
5808 1 0.219385 0.0988875 0.0849887
5563 1 0.282648 0.0738261 0.0552813
3344 1 0.255164 0.0508741 0.0672106
6469 1 0.286565 0.0302357 0.0516285
3183 1 0.497837 0.32903 0.306617
13794 1 0.373622 0.400844 0.0363781
12801 1 0.0378521 0.0727216 0.435777
3974 1 0.230426 0.436336 0.0335355
13702 1 0.267423 0.121427 0.0949707
7995 1 0.210364 0.118413 0.0457085
1128 1 0.345058 0.136248 0.0523884
552 1 0.267794 0.0418293 0.128142
10199 1 0.0370616 0.268448 0.399249
5485 1 0.307665 0.0340976 0.126545
1083 1 0.255599 0.245328 0.492098
8037 1 0.288599 0.0515756 0.0933732
5656 1 0.0194195 0.360032 0.287395
2374 1 0.277116 0.30814 0.0122694
3948 1 0.418518 0.0438721 0.00778423
4267 1 0.348401 0.0966918 0.0417275
1311 1 0.407566 0.13903 0.084969
2276 1 0.402128 0.0523691 0.0850971
37 1 0.372158 0.0680868 0.0509921
837 1 0.453761 0.0444114 0.0734274
1135 1 0.344409 0.0241674 0.0389308
1220 1 0.337435 0.115009 0.0831187
3136 1 0.280889 0.0959607 0.015209
10702 1 0.410851 0.0654429 0.0359414
10850 1 0.44093 0.455082 0.43568
3539 1 0.341949 0.136729 0.118488
7378 1 0.458186 0.0811888 0.0948991
11647 1 0.348859 0.0553404 0.0122135
8189 1 0.0158768 0.142435 0.420153
2769 1 0.332422 0.0759373 0.072498
3793 1 0.376132 0.0863011 0.0111004
7492 1 0.121542 0.434682 0.0584042
3244 1 0.428836 0.0711486 0.0721923
3480 1 0.00638146 0.420459 0.106936
3670 1 0.442745 0.111174 0.0617991
4724 1 0.45099 0.0148255 0.0184454
516 1 0.134134 0.486172 0.436129
16133 1 0.136959 0.222239 0.423703
12555 1 0.40082 0.112065 0.163637
456 1 0.489113 0.280055 0.260593
9745 1 0.486866 0.340523 0.120043
14028 1 0.451099 0.0512645 0.0303724
86 1 0.471995 0.215153 0.00558935
9929 1 0.483949 0.0113699 0.0628815
9783 1 0.449672 0.0944252 0.40538
6083 1 0.0145735 0.0914588 0.0301575
8489 1 0.409192 0.0954755 0.0900707
2293 1 0.0495569 0.211417 0.0368657
825 1 0.00676094 0.0508828 0.430342
654 1 0.0520951 0.155602 0.0477561
8254 1 0.087577 0.169693 0.0491646
1108 1 0.105862 0.102576 0.0700829
10194 1 0.0529394 0.161168 0.112306
6851 1 0.101856 0.224808 0.0389294
3401 1 0.0703849 0.195551 0.0125779
10144 1 0.0171277 0.417026 0.310002
3196 1 0.00551266 0.447985 0.0429821
9039 1 0.0167972 0.153491 0.0647247
2134 1 0.337588 0.0979925 0.00167181
1331 1 0.3567 0.22757 0.0104993
15241 1 0.001231 0.092282 0.116102
3190 1 0.465745 0.483285 0.468696
10873 1 0.0932308 0.173793 0.111527
5040 1 0.0633651 0.486394 0.288567
1825 1 0.195537 0.137138 0.109292
10309 1 0.159841 0.123934 0.123567
74 1 0.100795 0.143998 0.134143
2582 1 0.192857 0.140455 0.0144076
1855 1 0.154579 0.180605 0.0216719
1928 1 0.086796 0.480515 0.432007
768 1 0.325196 0.48899 0.134039
2449 1 0.185192 0.076272 0.0944745
2727 1 0.203915 0.144559 0.0728679
2038 1 0.147673 0.211324 0.0770723
15252 1 0.162497 0.146138 0.0878623
11643 1 0.11647 0.145029 0.0142242
7745 1 0.240207 0.142367 0.0604509
1248 1 0.341207 0.175835 0.0697961
4528 1 0.233587 0.133877 0.102806
4519 1 0.0156602 0.105278 0.28686
3042 1 0.308489 0.161949 0.043713
1665 1 0.303085 0.0997713 0.0884293
5203 1 0.282266 0.134133 0.0268271
723 1 0.248306 0.149068 0.0245337
11956 1 0.118864 0.348851 0.0119749
10319 1 0.273261 0.162794 0.0628616
3604 1 0.320324 0.216825 0.0215679
1015 1 0.303634 0.177623 0.0868236
2923 1 0.21386 0.163864 0.0355104
700 1 0.241786 0.189558 0.0289745
3091 1 0.374239 0.123407 0.0875427
4661 1 0.355231 0.467412 0.0196045
387 1 0.37616 0.151858 0.111766
2563 1 0.309763 0.142104 0.10444
3406 1 0.33911 0.17311 0.103835
15584 1 0.381133 0.184697 0.0886891
8582 1 0.0129161 0.480673 0.41784
81 1 0.363429 0.123907 0.0186367
13370 1 0.387887 0.029509 0.0380019
991 1 0.294358 0.131447 0.0701645
1013 1 0.377777 0.151092 0.0603191
3751 1 0.495472 0.0750107 0.011823
8824 1 0.0218509 0.263973 0.289095
3056 1 0.3711 0.163324 0.0167234
9611 1 0.339861 0.11771 0.150122
1639 1 0.401501 0.171716 0.0337767
2493 1 0.325301 0.129593 0.0211399
7275 1 0.212425 0.479672 0.117373
1053 1 0.42327 0.178196 0.0758512
11288 1 0.394971 0.104128 0.0441683
806 1 0.328509 0.0115441 0.244498
4821 1 0.268875 0.490065 0.04945
9862 1 0.481141 0.149688 0.0643374
12125 1 0.460021 0.229007 0.0407915
3293 1 0.433699 0.158775 0.0106444
745 1 0.433933 0.20121 0.0265323
2610 1 0.399764 0.130169 0.127356
2526 1 0.445827 0.167822 0.14062
553 1 0.268455 0.451096 0.48598
13384 1 0.487222 0.270186 0.226304
2534 1 0.465126 0.19594 0.0624947
9991 1 0.15485 0.00963876 0.14862
4663 1 0.449036 0.0906694 0.0161777
2602 1 0.442555 0.207477 0.0923377
3031 1 0.458125 0.349634 0.484985
2189 1 0.493291 0.167133 0.285302
5262 1 0.0827576 0.25334 0.0497367
2930 1 0.0944054 0.325757 0.0698955
407 1 0.109036 0.237618 0.0826868
907 1 0.139004 0.211321 0.0384076
1646 1 0.12314 0.26639 0.0384666
2071 1 0.124035 0.309544 0.0557515
10865 1 0.167808 0.292133 0.0149485
10960 1 0.0081317 0.0869441 0.45477
10924 1 0.10146 0.20186 0.0711761
9837 1 0.0132424 0.201661 0.331633
13981 1 0.0542257 0.29497 0.0330336
9304 1 0.0945691 0.12425 0.359611
11161 1 0.0988068 0.285847 0.071553
7743 1 0.122881 0.0418398 0.0426485
5703 1 0.12443 0.195018 0.100049
1672 1 0.115099 0.18828 0.0191341
12887 1 0.495661 0.00152371 0.382313
7637 1 0.0905978 0.3074 0.129118
12952 1 0.0174686 0.499118 0.45292
3336 1 0.17261 0.220093 0.0436579
11295 1 0.131189 0.274709 0.0846539
3261 1 0.232259 0.168197 0.4726
1341 1 0.157649 0.244143 0.0713079
1498 1 0.180823 0.223414 0.0997367
1894 1 0.255645 0.230372 0.0238791
3133 1 0.128367 0.300188 0.0219711
1110 1 0.0117605 0.0429989 0.0366593
383 1 0.176579 0.0333655 0.381605
989 1 0.310375 0.328483 0.00537664
1970 1 0.0590629 0.318591 0.108378
1938 1 0.271715 0.1997 0.0951699
3794 1 0.190207 0.189084 0.0181517
10986 1 0.270546 0.26216 0.101937
5917 1 0.22291 0.234875 0.0972589
1628 1 0.246341 0.2882 0.0807351
1234 1 0.207766 0.224345 0.0328117
2798 1 0.332832 0.388632 0.0582236
1757 1 0.3631 0.262268 0.0341662
307 1 0.246104 0.215209 0.0719515
7674 1 0.0117196 0.0089555 0.0126988
1227 1 0.183536 0.179205 0.0570053
207 1 0.210954 0.328779 0.48927
3559 1 0.290652 0.238488 0.00145538
11706 1 0.313273 0.199903 0.0524278
1653 1 0.385155 0.225158 0.0804883
6249 1 0.291426 0.234801 0.0378026
9552 1 0.474683 0.2075 0.117576
1163 1 0.411466 0.270116 0.0328299
5036 1 0.291161 0.274468 0.050976
312 1 0.381001 0.287689 0.0144039
348 1 0.246435 0.299846 0.145836
523 1 0.38733 0.230289 0.0399658
9732 1 0.329952 0.311223 0.0747623
3858 1 0.162302 0.223457 0.484603
14468 1 0.345259 0.226978 0.0483527
6882 1 0.367205 0.196934 0.0559792
3444 1 0.350574 0.328748 0.0351867
4624 1 0.0167294 0.345155 0.338959
75 1 0.399159 0.205503 0.0107783
10898 1 0.0537694 0.312036 0.423127
211 1 0.475275 0.235691 0.0840894
8676 1 0.438385 0.331667 0.25083
588 1 0.0868668 0.160235 0.00326698
894 1 0.440367 0.263836 0.101608
888 1 0.202743 0.465845 0.264595
697 1 0.418908 0.133075 0.0297468
1829 1 0.270622 0.0245216 0.245224
1450 1 0.0674357 0.491128 0.167422
11539 1 0.372316 0.433551 0.44908
3736 1 0.453928 0.37968 0.0649783
1680 1 0.377087 0.292622 0.0571007
7381 1 0.363954 0.479644 0.103953
3330 1 0.422143 0.242935 0.0613096
8209 1 0.00477679 0.310148 0.352475
1651 1 0.450593 0.307376 0.0881448
6871 1 0.150527 0.355071 0.111741
3362 1 0.133564 0.368704 0.0808665
1190 1 0.0632873 0.298191 0.0775366
1403 1 0.00364692 0.40954 0.186011
2734 1 0.0694612 0.391552 0.0549197
8752 1 0.128911 0.49556 0.499835
11579 1 0.112002 0.399094 0.0777586
2104 1 0.152119 0.247163 0.0189866
1516 1 0.046806 0.46862 0.139244
2214 1 0.0910589 0.43079 0.0791187
11728 1 0.0865489 0.267645 0.147597
2338 1 0.0618007 0.351688 0.0363803
423 1 0.189573 0.178817 0.453601
706 1 0.464341 0.487825 0.137035
11656 1 0.0246932 0.420873 0.0700835
11683 1 0.216423 0.0807504 0.0129748
11901 1 0.121323 0.383785 0.0233575
3973 1 0.160449 0.27886 0.0540898
9721 1 0.49099 0.318082 0.0348464
10093 1 0.0281369 0.361034 0.0419231
12186 1 0.114255 0.366441 0.113032
161 1 0.0994959 0.370716 0.0595987
681 1 0.491391 0.212849 0.295632
9808 1 0.210096 0.295704 0.0913093
1878 1 0.198136 0.289856 0.0462322
3008 1 0.219911 0.33019 0.0245779
4000 1 0.156189 0.328973 0.0834802
3586 1 0.233532 0.0982447 0.494675
14555 1 0.210771 0.42689 0.0645359
623 1 0.249913 0.311215 0.0440794
3855 1 0.198179 0.259527 0.0234323
357 1 0.194938 0.24713 0.0603256
9818 1 0.269563 0.378174 0.0348505
1677 1 0.052007 0.0586928 0.189583
5005 1 0.00579811 0.062159 0.223676
3498 1 0.271436 0.340141 0.0265979
6600 1 0.259149 0.26762 0.0274149
2670 1 0.0497639 0.0977549 0.485281
1850 1 0.279639 0.228462 0.155469
3645 1 0.321612 0.274443 0.0802263
2803 1 0.0193923 0.294882 0.0200703
7589 1 0.242162 0.357546 0.0579365
1222 1 0.26339 0.341993 0.0863721
8803 1 0.497629 0.314934 0.093424
1918 1 0.235934 0.27336 0.116761
1569 1 0.276772 0.424446 0.0902709
5092 1 0.365317 0.416501 0.0675332
12454 1 0.319578 0.34819 0.0608615
7432 1 0.232701 0.265066 0.0549626
1865 1 0.462601 0.347222 0.230159
3343 1 0.394297 0.292615 0.133886
9187 1 0.0242774 0.237363 0.105481
146 1 0.381218 0.307251 0.100188
4934 1 0.0119797 0.441666 0.335862
2880 1 0.290111 0.322416 0.0689048
1451 1 0.352832 0.348362 0.0956605
9119 1 0.414159 0.328966 0.0603832
3499 1 0.324484 0.369838 0.0935575
10238 1 0.024221 0.0635586 0.00314722
8789 1 0.250516 0.31818 0.112555
938 1 0.37784 0.327222 0.0631224
3131 1 0.420604 0.351143 0.0905703
11864 1 0.326576 0.398989 0.0209336
1614 1 0.414463 0.397177 0.0885826
109 1 0.363544 0.374437 0.076428
8363 1 0.302171 0.242127 0.191175
1743 1 0.35592 0.252391 0.0759037
1843 1 0.443004 0.280407 0.0616395
1600 1 0.45817 0.286484 0.00524166
10523 1 0.0518679 0.402259 0.0123656
9424 1 0.415765 0.291712 0.0992857
3916 1 0.368899 0.332147 0.130251
9078 1 0.473485 0.345952 0.390294
3554 1 0.498084 0.112102 0.0188449
490 1 0.412235 0.365359 0.0468175
9741 1 0.0268115 0.365365 0.112212
1587 1 0.438028 0.317419 0.145139
4725 1 0.380406 0.251577 0.107259
8236 1 0.475744 0.433492 0.0818085
1193 1 0.47825 0.373091 0.00820124
7557 1 0.0796109 0.0225574 0.0225683
9776 1 0.454716 0.411581 0.0433091
14107 1 0.404951 0.32916 0.119361
10235 1 0.43048 0.205769 0.40688
444 1 0.328492 0.253586 0.0252606
1035 1 0.491227 0.361162 0.464548
7987 1 0.132237 0.345901 0.0510604
13 1 0.0620851 0.0353389 0.486894
5266 1 0.0369483 0.449892 0.398953
1668 1 0.449361 0.311508 0.0341791
10017 1 0.0292813 0.475681 0.0786648
3810 1 0.0710178 0.466898 0.0779003
1891 1 0.0569751 0.436722 0.0628291
9185 1 0.0103972 0.328591 0.0317086
6048 1 0.114292 0.0312685 0.149295
9308 1 0.031521 0.110432 0.374664
8248 1 0.127711 0.425991 0.0225982
8647 1 0.169076 0.481985 0.172649
7044 1 0.417805 0.47384 0.488588
3990 1 0.0804957 0.0185705 0.359624
8618 1 0.0144291 0.167465 0.465465
224 1 0.179388 0.404326 0.0597061
9244 1 0.177184 0.434895 0.0196301
5044 1 0.114302 0.474781 0.0448393
566 1 0.140363 0.400453 0.0544334
6616 1 0.240005 0.448088 0.0740957
147 1 0.492567 0.19811 0.334421
1043 1 0.156441 0.491788 0.0419263
963 1 0.190767 0.330971 0.0744973
1572 1 0.00960973 0.193234 0.164259
4371 1 0.243175 0.499037 0.289669
5567 1 0.0606668 0.025559 0.172695
194 1 0.289926 0.176802 0.498599
8957 1 0.227512 0.399095 0.0323727
8893 1 0.0732748 0.0398924 0.443745
9644 1 0.467583 0.0531732 0.219991
1991 1 0.169052 0.39547 0.0242969
8371 1 0.138014 0.393171 0.491614
8104 1 0.297912 0.401395 0.0521721
11169 1 0.0954702 0.133234 0.439628
2210 1 0.268563 0.397145 0.115011
4792 1 0.361374 0.0240635 0.263718
800 1 0.146497 0.456271 0.0271628
9166 1 0.261677 0.42689 0.049736
2640 1 0.291717 0.366648 0.0749935
5691 1 0.41155 0.056058 0.253814
9161 1 0.0361036 0.10671 0.0728755
734 1 0.293898 0.462045 0.0560948
3072 1 0.189928 0.466624 0.198609
1729 1 0.0135306 0.284355 0.42218
12469 1 0.0290779 0.491921 0.117114
1161 1 0.217999 0.473343 0.0568125
3462 1 0.299711 0.490026 0.029646
9584 1 0.427643 0.0623883 0.118168
3478 1 0.395076 0.451814 0.0470145
8783 1 0.362721 0.463447 0.0635883
5719 1 0.335796 0.320251 0.113658
238 1 0.33379 0.403711 0.136716
11342 1 0.285532 0.462111 0.0946429
34 1 0.425976 0.446348 0.0249812
14437 1 0.400502 0.432634 0.0876499
1239 1 0.499585 0.038167 0.389583
9876 1 0.465707 0.383334 0.356477
12346 1 0.393157 0.478011 0.0252149
10166 1 0.0236217 0.316062 0.166994
7 1 0.327574 0.46222 0.0813992
831 1 0.463456 0.461776 0.318821
10531 1 0.0448116 0.0286196 0.00461178
12447 1 0.499715 0.460209 0.0125113
9128 1 0.410031 0.0133524 0.42629
4794 1 0.181251 0.474259 0.338931
13369 1 0.433477 0.480426 0.0206548
5982 1 0.139709 0.497749 0.229218
5433 1 0.43205 0.437975 0.0651088
8930 1 0.418883 0.380797 0.124513
5251 1 0.235418 0.00323738 0.234296
1702 1 0.144132 0.0330915 0.404004
9149 1 0.0327449 0.317499 0.323315
10072 1 0.460617 0.440569 0.016095
10544 1 0.102203 0.26705 0.467174
10193 1 0.052752 0.0432916 0.259211
2653 1 0.233881 0.279408 0.00543251
5970 1 0.406424 0.413003 0.0515132
4414 1 0.0669879 0.101349 0.0894975
5032 1 0.296906 0.00201138 0.224911
15 1 0.431057 0.495289 0.442344
1684 1 0.0649907 0.00921428 0.229823
1111 1 0.110793 0.0819757 0.162187
2736 1 0.0501303 0.066273 0.1215
2158 1 0.0740449 0.0491443 0.142633
5472 1 0.138147 0.00906118 0.228678
874 1 0.0572596 0.0877288 0.154424
15111 1 0.397485 0.472898 0.0826487
1011 1 0.0981538 0.0513766 0.185174
6413 1 0.234265 0.079081 0.0504384
9029 1 0.426422 0.343614 0.0179224
2970 1 0.0544703 0.0121207 0.131783
1308 1 0.0197946 0.0115714 0.384733
9777 1 0.159667 0.336559 0.470683
6204 1 0.37001 0.0134643 0.0110687
7753 1 0.139691 0.113631 0.0909598
4831 1 0.335538 0.437726 0.00645138
104 1 0.179436 0.0635129 0.179413
5848 1 0.36048 0.00478654 0.0990893
9850 1 0.13737 0.090282 0.132146
2318 1 0.201322 0.0255377 0.0502312
10106 1 0.49547 0.168469 0.360706
151 1 0.189453 0.0432993 0.146939
397 1 0.216247 0.0619102 0.121657
8533 1 0.145181 0.0754256 0.101081
10728 1 0.154002 0.0109815 0.104798
8290 1 0.00482228 0.263326 0.0359759
8864 1 0.442133 0.483732 0.343196
12866 1 0.155966 0.0434337 0.0198797
6621 1 0.12712 0.355827 0.477896
1879 1 0.15073 0.370273 0.000574081
4869 1 0.202542 0.0866518 0.194096
9573 1 0.495878 0.183936 0.465795
2451 1 0.304199 0.432901 0.0314904
4328 1 0.226103 0.0540826 0.168884
8458 1 0.299769 0.02243 0.160196
1571 1 0.295117 0.0410792 0.196751
1559 1 0.246907 0.0752206 0.196242
12662 1 0.292974 0.0643007 0.157843
7533 1 0.262958 0.0322306 0.167593
3803 1 0.280357 0.0924441 0.189462
9855 1 0.233384 0.022128 0.144022
3221 1 0.202716 0.00424639 0.164999
9452 1 0.493029 0.0690714 0.106218
10232 1 0.347486 0.0903841 0.12496
12311 1 0.427332 0.0799386 0.148245
3076 1 0.273047 0.0120445 0.196559
1437 1 0.335759 0.000686064 0.138866
11402 1 0.305998 0.124794 0.163427
3032 1 0.318831 0.0716919 0.109174
1657 1 0.373406 0.0864472 0.0941642
4327 1 0.345635 0.0888661 0.231341
9239 1 0.414159 0.149253 0.161468
2824 1 0.364324 0.0573594 0.202053
2886 1 0.28622 0.071573 0.225321
892 1 0.33573 0.0604378 0.143811
3322 1 0.344217 0.0886722 0.19017
281 1 0.401324 0.139822 0.2132
3130 1 0.257504 0.389619 0.00208412
9677 1 0.463342 0.235647 0.301912
9098 1 0.395046 0.0477416 0.135392
8996 1 0.443208 0.116176 0.111023
1664 1 0.383576 0.0916782 0.208384
2856 1 0.38545 0.0723449 0.166545
5790 1 0.467167 0.0368625 0.104226
9638 1 0.477919 0.118958 0.090777
1474 1 0.459582 0.106546 0.169768
76 1 0.391136 0.0318454 0.221628
6036 1 0.0176613 0.160383 0.232428
13579 1 0.446453 0.0408191 0.142499
4184 1 0.419918 0.0894286 0.183528
14893 1 0.414536 0.441891 0.46052
1326 1 0.488842 0.282505 0.44887
15597 1 0.415132 0.0476798 0.167755
14076 1 0.484493 0.0574687 0.0626754
1084 1 0.0196784 0.131222 0.0996252
197 1 0.485368 0.077262 0.169442
9599 1 0.382811 0.0918644 0.135667
1131 1 0.0022813 0.0656882 0.331136
2694 1 0.0527846 0.099507 0.000754773
3409 1 0.0380422 0.10525 0.118018
5634 1 0.0170971 0.0953815 0.205762
586 1 0.290254 0.458832 0.00794386
3928 1 0.341385 0.130009 0.493879
1293 1 0.0412692 0.206141 0.100834
11315 1 0.019088 0.0764376 0.150762
1777 1 0.0171956 0.163572 0.130819
12160 1 0.0692602 0.127005 0.12475
3738 1 0.0483287 0.201113 0.135887
11672 1 0.0939273 0.108812 0.184043
1632 1 0.0596743 0.144011 0.233066
1638 1 0.0595493 0.497073 0.46342
13626 1 0.0399953 0.133913 0.145962
2382 1 0.089297 0.0890288 0.133685
9297 1 0.0398797 0.169606 0.160488
8302 1 0.0758179 0.133209 0.16753
1565 1 0.0206019 0.202906 0.241841
310 1 0.0649509 0.229192 0.0710228
613 1 0.101966 0.108971 0.105257
2913 1 0.0921569 0.213091 0.157283
9689 1 0.134067 0.125824 0.158817
3657 1 0.158796 0.203757 0.125616
3446 1 0.0824047 0.178355 0.149562
2674 1 0.151836 0.111431 0.185029
1615 1 0.112953 0.0625782 0.120982
2201 1 0.204392 0.134328 0.248888
8828 1 0.205219 0.136129 0.14577
1324 1 0.1748 0.108786 0.159359
351 1 0.108668 0.15647 0.167738
2036 1 0.129349 0.138825 0.0633941
1667 1 0.130633 0.17553 0.0565461
935 1 0.180214 0.167349 0.129944
1179 1 0.244361 0.120292 0.137266
10224 1 0.165853 0.0794196 0.215493
1199 1 0.17252 0.148117 0.165448
4182 1 0.272995 0.00654151 0.113546
3812 1 0.213367 0.101514 0.123924
8314 1 0.351838 0.164653 0.146324
4772 1 0.213571 0.0602458 0.0763563
9282 1 0.174698 0.0809853 0.129098
6906 1 0.247433 0.081381 0.134002
3398 1 0.311639 0.105075 0.128065
1634 1 0.232715 0.174447 0.072306
2323 1 0.276157 0.104249 0.153686
1055 1 0.216341 0.0955696 0.158549
1337 1 0.230697 0.168947 0.250628
142 1 0.30769 0.209798 0.204001
999 1 0.227223 0.163933 0.130074
710 1 0.28372 0.0786812 0.118523
3466 1 0.276413 0.145271 0.128139
2511 1 0.128521 0.150421 0.100342
4736 1 0.256508 0.185927 0.131077
5694 1 0.373724 0.134155 0.154275
10067 1 0.327675 0.211409 0.121765
6629 1 0.27922 0.142157 0.197802
11084 1 0.298281 0.170545 0.181375
1231 1 0.24845 0.229527 0.123185
1904 1 0.289691 0.163144 0.221837
12136 1 0.408124 0.19837 0.171808
148 1 0.368631 0.207779 0.166506
1142 1 0.389605 0.216758 0.217669
6025 1 0.386016 0.18448 0.134663
866 1 0.309329 0.0867268 0.247017
9973 1 0.314525 0.191084 0.237439
2909 1 0.449862 0.148178 0.0887781
1049 1 0.378484 0.164747 0.175036
3848 1 0.42003 0.157808 0.115362
8560 1 0.466057 0.174734 0.10651
6472 1 0.414279 0.0957864 0.229614
2820 1 0.434229 0.134956 0.192475
2244 1 0.36479 0.135519 0.206987
10551 1 0.454688 0.23449 0.133078
16058 1 0.038322 0.199889 0.469674
16293 1 0.0546849 0.330934 0.457681
2077 1 0.434007 0.259936 0.17129
4344 1 0.493365 0.396741 0.097269
13939 1 0.473125 0.14865 0.170204
9856 1 0.441048 0.130879 0.142327
3403 1 0.109947 0.294039 0.492013
3467 1 0.412868 0.194232 0.109525
951 1 0.364278 0.208367 0.118051
2020 1 0.471389 0.188283 0.158522
561 1 0.435469 0.205022 0.142354
12736 1 0.445965 0.17299 0.184819
10790 1 0.0250651 0.231961 0.150354
10740 1 0.0847542 0.21063 0.107835
11 1 0.0900396 0.220476 0.198581
10204 1 0.0606361 0.233699 0.14009
6158 1 0.0171955 0.237433 0.0613854
8476 1 0.046448 0.275338 0.167387
6451 1 0.091479 0.18841 0.184357
7622 1 0.217902 0.0130462 0.0147851
6113 1 0.298722 0.0130441 0.0902682
4596 1 0.111893 0.157598 0.203238
5819 1 0.0653199 0.244583 0.177482
3039 1 0.0226492 0.330957 0.131111
10172 1 0.00501041 0.235529 0.239181
8613 1 0.0258357 0.0240251 0.237458
10035 1 0.0754064 0.246325 0.228922
5023 1 0.149659 0.047156 0.243035
2998 1 0.171475 0.233947 0.141585
2222 1 0.205643 0.32163 0.195699
10974 1 0.16299 0.294627 0.0880522
2282 1 0.187813 0.264527 0.0967329
1032 1 0.0547246 0.204243 0.175706
171 1 0.143159 0.239262 0.107242
1655 1 0.100275 0.241255 0.128299
2710 1 0.127605 0.272381 0.144285
2370 1 0.177681 0.292018 0.197183
1256 1 0.140816 0.160824 0.139549
39 1 0.194483 0.184618 0.0962521
8386 1 0.0855064 0.275192 0.200155
804 1 0.160734 0.267341 0.126737
607 1 0.106269 0.249447 0.171397
78 1 0.159813 0.222385 0.17755
599 1 0.165117 0.260714 0.16906
8558 1 0.196558 0.32813 0.237107
1555 1 0.0999074 0.276057 0.108311
2033 1 0.126312 0.237851 0.200962
1198 1 0.227973 0.199505 0.100624
3222 1 0.2756 0.2009 0.049163
854 1 0.201534 0.213722 0.132311
1428 1 0.202046 0.222823 0.214745
10571 1 0.15792 0.180095 0.0965139
1530 1 0.155298 0.270002 0.220899
714 1 0.20968 0.243951 0.171825
1644 1 0.304658 0.193938 0.154938
1006 1 0.298566 0.314444 0.130545
4372 1 0.274564 0.273366 0.189567
624 1 0.240917 0.216417 0.156113
265 1 0.160598 0.151355 0.0413351
897 1 0.268739 0.246059 0.21788
9813 1 0.221216 0.28279 0.177214
246 1 0.294412 0.233732 0.118513
7900 1 0.245315 0.252955 0.174111
384 1 0.335789 0.18817 0.170708
72 1 0.253922 0.164209 0.102511
12586 1 0.259543 0.250671 0.0682227
9022 1 0.355663 0.239573 0.141692
8817 1 0.332804 0.24598 0.10831
3144 1 0.410278 0.29753 0.169511
108 1 0.340032 0.215687 0.225721
958 1 0.335956 0.216535 0.0846138
3802 1 0.307616 0.28895 0.161611
8788 1 0.268772 0.275344 0.13845
1459 1 0.34166 0.292591 0.178559
346 1 0.341454 0.256937 0.184194
1876 1 0.307771 0.238437 0.0782563
1827 1 0.334542 0.162859 0.206994
3807 1 0.326148 0.224085 0.164307
732 1 0.257005 0.196927 0.228401
1019 1 0.300142 0.314171 0.226211
3757 1 0.409104 0.207589 0.0598581
7683 1 0.425206 0.257327 0.137835
993 1 0.116189 0.464494 0.00710936
1288 1 0.420649 0.234334 0.0961966
1593 1 0.392997 0.257829 0.15636
9451 1 0.485862 0.412096 0.00624245
318 1 0.449892 0.222314 0.177135
1761 1 0.412708 0.269268 0.202643
2109 1 0.400027 0.268298 0.0742007
3555 1 0.486486 0.0973632 0.0537536
418 1 0.464383 0.269141 0.147663
1430 1 0.206508 0.452534 0.0883152
2708 1 0.278437 0.197832 0.0136289
8738 1 0.0460656 0.408367 0.103246
8438 1 0.116421 0.324728 0.106987
3709 1 0.0514079 0.349159 0.142678
16134 1 0.14712 0.319111 0.127323
1346 1 0.0127617 0.28643 0.137557
8330 1 0.0886358 0.338494 0.168629
2706 1 0.082459 0.34708 0.127811
9097 1 0.0980359 0.444295 0.113238
8981 1 0.0310333 0.487872 0.168137
9462 1 0.0621544 0.391846 0.148422
10760 1 0.069866 0.423149 0.132991
4494 1 0.0668476 0.00674109 0.08584
3118 1 0.224286 0.467352 0.00662022
1500 1 0.0415957 0.0379073 0.35704
567 1 0.42827 0.378324 0.477427
2150 1 0.0110655 0.398138 0.151168
638 1 0.149804 0.297728 0.168238
1139 1 0.184403 0.291321 0.158322
6674 1 0.226517 0.328995 0.0853636
5539 1 0.162205 0.365555 0.053755
1213 1 0.182675 0.374826 0.121966
9487 1 0.0434478 0.261147 0.212747
9458 1 0.118112 0.346413 0.146956
10510 1 0.183008 0.314301 0.115104
12832 1 0.119882 0.308123 0.153626
8325 1 0.154827 0.361164 0.191334
1976 1 0.218661 0.341078 0.122379
7565 1 0.070705 0.303052 0.168047
1936 1 0.11642 0.345805 0.209483
3697 1 0.0969168 0.376511 0.151412
2479 1 0.130663 0.397686 0.111503
3814 1 0.0953249 0.403856 0.111609
1086 1 0.227265 0.326341 0.158556
1478 1 0.180247 0.369456 0.0880359
95 1 0.202932 0.266438 0.137682
2410 1 0.340029 0.314912 0.150342
4252 1 0.298238 0.376422 0.126581
595 1 0.238497 0.342846 0.187376
497 1 0.267055 0.329722 0.146196
11844 1 0.195332 0.340194 0.169389
856 1 0.282644 0.298996 0.0981803
1463 1 0.31487 0.327847 0.176604
3080 1 0.251848 0.361067 0.124203
1339 1 0.221784 0.386896 0.105096
7297 1 0.256908 0.389887 0.0727546
2322 1 0.175185 0.389436 0.173003
2704 1 0.210902 0.367877 0.150128
843 1 0.305397 0.337766 0.0980075
1155 1 0.238012 0.393529 0.146135
12867 1 0.300246 0.274685 0.119628
1640 1 0.154365 0.418429 0.168503
1733 1 0.142008 0.418569 0.207264
10962 1 0.389045 0.362167 0.0999849
1656 1 0.316944 0.344902 0.137118
7347 1 0.278698 0.392429 0.152547
634 1 0.315358 0.307585 0.292663
1322 1 0.290241 0.356436 0.16483
1718 1 0.352786 0.368152 0.133518
1164 1 0.403021 0.351812 0.231749
2357 1 0.35264 0.284476 0.107288
4790 1 0.359931 0.378474 0.176852
775 1 0.347668 0.278256 0.143956
2236 1 0.349839 0.341763 0.169927
1263 1 0.273236 0.33739 0.227672
10039 1 0.26513 0.438192 0.122789
9916 1 0.379409 0.345292 0.19787
1532 1 0.360912 0.365475 0.226674
4125 1 0.342844 0.322079 0.205892
10 1 0.337187 0.393381 0.198326
9878 1 0.476551 0.304502 0.156031
1284 1 0.385844 0.0131218 0.127345
3216 1 0.489735 0.386431 0.135509
9215 1 0.460177 0.370062 0.114732
1519 1 0.427863 0.363228 0.204887
337 1 0.377982 0.300138 0.205078
798 1 0.430395 0.374247 0.166305
3530 1 0.451602 0.293418 0.191015
1897 1 0.482938 0.3904 0.221689
4763 1 0.403859 0.401807 0.186683
1196 1 0.373967 0.30393 0.166103
3459 1 0.416759 0.112659 0.488832
14199 1 0.462805 0.419846 0.232951
1344 1 0.435091 0.445345 0.135807
1105 1 0.410807 0.329908 0.200418
1497 1 0.445047 0.319639 0.214517
8364 1 0.454843 0.334849 0.174117
9093 1 0.477053 0.459211 0.209765
7039 1 0.00742352 0.46052 0.137077
9757 1 0.0134546 0.108242 0.32958
390 1 0.0306964 0.433141 0.177218
2068 1 0.146205 0.217193 0.00180426
4103 1 0.0332582 0.427905 0.136808
16308 1 0.144707 0.0833624 0.00137054
4688 1 0.470102 0.0212998 0.458159
1683 1 0.064773 0.376696 0.10751
3991 1 0.498144 0.231439 0.0515821
10599 1 0.0640451 0.454029 0.167465
2578 1 0.25742 0.012645 0.0802066
2438 1 0.447778 0.2446 0.00747437
11667 1 0.0307289 0.331246 0.0889087
9902 1 0.481125 0.444582 0.132412
2800 1 0.0491453 0.378652 0.449585
1354 1 0.244632 0.0548934 0.4984
3275 1 0.110909 0.472549 0.0893043
54 1 0.166774 0.414348 0.124406
2793 1 0.282089 0.357622 0.493875
5744 1 0.155639 0.452336 0.188552
7336 1 0.0847684 0.486538 0.121979
290 1 0.247977 0.489984 0.182204
4330 1 0.154999 0.455205 0.0796925
63 1 0.156242 0.410561 0.0888747
5274 1 0.128446 0.434298 0.0971893
1340 1 0.162328 0.353924 0.145207
3463 1 0.0979311 0.454414 0.15328
7937 1 0.1814 0.45448 0.114849
11417 1 0.0340872 0.0512235 0.313047
1557 1 0.0839448 0.378625 0.0230093
2577 1 0.0469251 0.270397 0.124516
5261 1 0.138099 0.453934 0.153412
11517 1 0.0899329 0.451056 0.0488921
2855 1 0.140604 0.459072 0.118164
15963 1 0.223621 0.443791 0.122444
711 1 0.308495 0.403287 0.102355
5140 1 0.255067 0.409237 0.185657
4324 1 0.182402 0.483521 0.068086
3404 1 0.252685 0.37328 0.174291
1487 1 0.0468781 0.313303 0.20399
1426 1 0.216534 0.378873 0.0693863
5721 1 0.185402 0.444289 0.163496
13045 1 0.468727 0.374087 0.411634
12922 1 0.473099 0.026419 0.326067
1063 1 0.205541 0.405895 0.129705
896 1 0.2491 0.482615 0.145271
633 1 0.196235 0.413458 0.093465
4484 1 0.229607 0.438902 0.157993
4542 1 0.194054 0.420158 0.196468
4867 1 0.444688 0.414994 0.103516
3508 1 0.0253662 0.400438 0.0375591
12406 1 0.379205 0.444127 0.180046
4977 1 0.356271 0.399818 0.106607
6427 1 0.39817 0.410792 0.12431
6270 1 0.418925 0.442957 0.196415
3655 1 0.321594 0.377385 0.165183
1816 1 0.391634 0.387059 0.15173
8779 1 0.340504 0.458134 0.192022
8767 1 0.298002 0.419449 0.132552
4930 1 0.319833 0.426888 0.071367
5892 1 0.356901 0.437324 0.119212
1178 1 0.303237 0.457298 0.185736
392 1 0.322789 0.435626 0.250195
10284 1 0.0389631 0.32049 0.0562195
826 1 0.481533 0.404043 0.322336
4833 1 0.362707 0.413744 0.163049
13711 1 0.451857 0.220075 0.335931
6460 1 0.120442 0.481795 0.170085
555 1 0.465703 0.386152 0.169782
9284 1 0.450778 0.398722 0.20141
8680 1 0.404253 0.459686 0.116649
8925 1 0.405885 0.469709 0.152263
8206 1 0.399927 0.344914 0.156381
4335 1 0.429734 0.41439 0.159955
1840 1 0.46453 0.460129 0.0529748
2861 1 0.384508 0.440975 0.141558
1206 1 0.356962 0.419432 0.207553
9869 1 0.436824 0.451162 0.09783
2141 1 0.487221 0.261694 0.00568584
1143 1 0.388916 0.393964 0.225467
10098 1 0.355383 0.405942 0.243098
4303 1 0.385153 0.340281 0.0302817
4738 1 0.403214 0.481502 0.187997
8204 1 0.45568 0.140481 0.416074
8460 1 0.10291 0.0788469 0.21368
1697 1 0.0505916 0.0960831 0.255333
6262 1 0.0758806 0.040527 0.0566172
8696 1 0.00857464 0.288702 0.38454
1580 1 0.0540401 0.116091 0.287321
1670 1 0.021699 0.0760173 0.0880995
1562 1 0.0626498 0.0902055 0.204517
1472 1 0.1321 0.0200484 0.180754
12513 1 0.0723894 0.0652519 0.301913
395 1 0.095497 0.00937879 0.262645
8505 1 0.465593 0.306152 0.122
14754 1 0.00918775 0.247823 0.372711
1781 1 0.145741 0.0266172 0.36728
6484 1 0.476293 0.288526 0.295825
9925 1 0.0854767 0.0767538 0.246795
14291 1 0.113887 0.0442786 0.240207
4118 1 0.19515 0.499878 0.0278012
1618 1 0.353319 0.458886 0.156617
431 1 0.0741138 0.0348242 0.330083
5499 1 0.21837 0.0521046 0.281184
126 1 0.15018 0.0582003 0.15582
5585 1 0.101453 0.0434763 0.298817
3732 1 0.287077 0.0785542 0.463384
3918 1 0.0266259 0.298223 0.104721
4923 1 0.492478 0.0099551 0.495943
12714 1 0.140706 0.0695274 0.187678
1927 1 0.207124 0.0289558 0.200763
9810 1 0.160952 0.0836873 0.251125
5635 1 0.172547 0.128504 0.212783
1066 1 0.139907 0.0921483 0.31265
5854 1 0.260371 0.0589089 0.323962
227 1 0.160777 0.0368068 0.201227
11926 1 0.0732663 0.0481601 0.218078
1874 1 0.232575 0.0917871 0.228548
5940 1 0.246607 0.0605844 0.24612
1814 1 0.285244 0.111739 0.224628
9795 1 0.186766 0.0405183 0.236027
1717 1 0.162105 0.125395 0.245345
811 1 0.208765 0.0652044 0.24777
902 1 0.317022 0.101097 0.45228
3786 1 0.163467 0.0715262 0.290503
10012 1 0.206286 0.12685 0.180859
5136 1 0.335108 0.0537977 0.221165