ITEM: TIMESTEP
10000
ITEM: NUMBER OF ATOMS
16384
ITEM: BOX BOUNDS pp pp pp
0.0000000000000000e+00 8.0764399999999995e+01
0.0000000000000000e+00 8.0764399999999995e+01
0.0000000000000000e+00 8.0764399999999995e+01
ITEM: ATOMS id type xs ys zs
1891 1 0.1234 0.397905 0.0157974
6584 1 0.213118 0.287878 0.0591064
960 1 0.0140471 0.344261 0.339643
330 1 0.473285 0.249248 0.465232
8518 1 0.0617456 0.123888 0.137609
8132 1 0.00467651 0.322662 0.0361758
4636 1 0.133279 0.457726 0.121573
1041 1 0.0192512 0.281407 0.439373
3049 1 0.440042 0.0417275 0.00665331
6853 1 0.144167 0.0398282 0.0883037
12025 1 0.0376817 0.385361 0.355361
5185 1 0.0467076 0.0956806 0.0743615
12040 1 0.478327 0.000770896 0.418452
15952 1 0.0108167 0.0492445 0.120964
1754 1 0.0687321 0.106082 0.0481751
12857 1 0.127544 0.208313 0.0149262
10452 1 0.0853437 0.14783 0.0753274
14781 1 0.258354 0.107072 0.0315651
12443 1 0.208524 0.109689 0.115739
4783 1 0.141803 0.102107 0.0711477
8866 1 0.103644 0.0542549 0.0596698
12368 1 0.126436 0.435712 0.00766741
2670 1 0.178305 0.0254516 0.11433
1948 1 0.167943 0.0670979 0.0682333
12635 1 0.491761 0.311902 0.190178
3525 1 0.0816905 0.100519 0.01347
4113 1 0.214 0.488903 0.285561
676 1 0.438811 0.158671 0.345871
5170 1 0.249437 0.0645804 0.0864982
8898 1 0.130336 0.320621 0.0032548
3656 1 0.360791 0.0740313 0.419339
9428 1 0.000281108 0.163774 0.278965
1518 1 0.456003 0.341078 0.133063
12602 1 0.310627 0.148825 0.0902217
4173 1 0.349286 0.0735359 0.0507045
5064 1 0.165954 0.0523482 0.0237893
8033 1 0.273395 0.0382697 0.109011
946 1 0.23663 0.0140861 0.0766732
1842 1 0.0229219 0.451257 0.251828
681 1 0.300592 0.0717987 0.0467818
9204 1 0.487559 0.218465 0.226715
7834 1 0.27307 0.0900817 0.0763517
4660 1 0.355275 0.18004 0.0707745
3924 1 0.183973 0.0999779 0.1434
9166 1 0.189115 0.114071 0.0671797
9589 1 0.0462377 0.498415 0.0284527
1380 1 0.259684 0.0616437 0.0513184
1765 1 0.0350233 0.170591 0.188635
12194 1 0.262368 0.056649 0.0150121
13818 1 0.236594 0.10886 0.0674279
5134 1 0.216738 0.0848149 0.150679
7857 1 0.257645 0.184717 0.0256088
9092 1 0.310966 0.235691 0.0136886
9270 1 0.338534 0.00600259 0.0365726
13438 1 0.41129 0.292778 0.3997
14012 1 0.0168014 0.0170969 0.395285
9760 1 0.295454 0.0451211 0.0707612
422 1 0.0801162 0.289131 0.0283378
7161 1 0.350222 0.00792623 0.0953708
732 1 0.355093 0.17658 0.116261
245 1 0.360353 0.0471238 0.0241128
14123 1 0.0184108 0.269429 0.399783
251 1 0.216588 0.144122 0.0444712
9640 1 0.25018 0.13986 0.0519344
2584 1 0.220045 0.00752158 0.0131905
1435 1 0.471743 0.185208 0.11356
5122 1 0.363113 0.0577263 0.0957693
2897 1 0.469233 0.0808052 0.0235383
8233 1 0.108042 0.0186558 0.391115
6298 1 0.143162 0.0169086 0.375076
5524 1 0.256739 0.495884 0.480598
641 1 0.413371 0.132671 0.11781
3904 1 0.474209 0.0929528 0.133258
3479 1 0.173556 0.472781 0.478455
12721 1 0.432405 0.110026 0.0405607
15496 1 0.461701 0.0883626 0.0776183
9547 1 0.481362 0.0471594 0.0882642
5386 1 0.49107 0.0146099 0.060506
3694 1 0.156692 0.385736 0.0298576
8070 1 0.180339 0.401753 0.00208513
13975 1 0.0844137 0.22721 0.0819728
1426 1 0.198359 0.470746 0.379169
1544 1 0.100573 0.256393 0.0266668
4784 1 0.0384998 0.171963 0.0776029
11885 1 0.0119019 0.188321 0.101527
432 1 0.0818906 0.134611 0.0267322
1757 1 0.0242277 0.208738 0.0464695
1102 1 0.098015 0.191699 0.0825728
9812 1 0.374787 0.000996971 0.247042
7462 1 0.0419306 0.13726 0.104562
1974 1 0.0886186 0.368846 0.427426
7685 1 0.0524383 0.0398493 0.322039
4767 1 0.17176 0.486885 0.195384
13246 1 0.0507657 0.0722305 0.0317498
9819 1 0.117107 0.13795 0.0355027
6722 1 0.412383 0.0478066 0.0580101
8207 1 0.027452 0.156995 0.0138514
2407 1 0.378304 0.320903 0.0140202
5945 1 0.0533016 0.0354411 0.0506586
842 1 0.130809 0.126885 0.112787
14580 1 0.131872 0.218148 0.086971
16144 1 0.317325 0.0208658 0.341571
2171 1 0.416073 0.392029 0.0341805
1559 1 0.21371 0.0379713 0.150713
5358 1 0.126959 0.478978 0.0228096
3419 1 0.493156 0.290722 0.348026
12587 1 0.0281548 0.0450013 0.191069
15171 1 0.417658 0.324895 0.495077
15665 1 0.405977 0.238039 0.00558884
7359 1 0.028406 0.105368 0.133151
11459 1 0.168851 0.179535 0.0293806
749 1 0.0449335 0.241513 0.282203
257 1 0.116182 0.23872 0.0652352
4905 1 0.109508 0.0688365 0.33188
3146 1 0.264781 0.490381 0.224663
148 1 0.224512 0.041456 0.113383
5998 1 0.13309 0.263048 0.0340743
14308 1 0.215364 0.175321 0.0227214
3029 1 0.143628 0.126085 0.00873024
11421 1 0.308533 0.177427 0.11314
722 1 0.499549 0.0737682 0.00920862
2471 1 0.217137 0.208091 0.0453036
8950 1 0.000806322 0.0194442 0.488612
1209 1 0.152174 0.486615 0.398317
8618 1 0.455352 0.167714 0.203968
3837 1 0.334341 0.180328 0.0397329
265 1 0.176362 0.121774 0.102297
3678 1 0.17203 0.0803834 0.352386
5581 1 0.299892 0.495364 0.267987
461 1 0.249791 0.182416 0.0630319
8254 1 0.355374 0.214855 0.164009
5644 1 0.218339 0.0733074 0.344179
3610 1 0.281501 0.130356 0.0747527
11581 1 0.289704 0.205269 0.0761123
165 1 0.321874 0.243609 0.0784989
3133 1 0.403671 0.186991 0.0664354
8817 1 0.386208 0.170896 0.0996516
14293 1 0.43579 0.209374 0.0836732
1726 1 0.202181 0.0626362 0.383551
11760 1 0.288864 0.309155 0.168768
10626 1 0.310116 0.15756 0.0145711
5279 1 0.387369 0.0201273 0.221715
12164 1 0.481783 0.0683823 0.215858
1460 1 0.498783 0.0510873 0.373008
1310 1 0.426913 0.246646 0.13117
12422 1 0.458148 0.225732 0.124153
12660 1 0.396356 0.112602 0.0182425
3792 1 0.15724 0.0043247 0.039958
5370 1 0.0418703 0.0017951 0.451315
52 1 0.43327 0.199953 0.121746
9467 1 0.281056 0.0343748 0.0338647
3653 1 0.0710998 0.189556 0.0609348
793 1 0.240092 0.46368 0.464943
2162 1 0.0952879 0.336292 0.0208113
2360 1 0.0946934 0.460456 0.0278161
6728 1 0.344091 0.00294765 0.313902
10749 1 0.0615805 0.160357 0.432385
3703 1 0.0334071 0.346799 0.0218833
3224 1 0.0340517 0.46783 0.458114
11712 1 0.452366 0.155056 0.147248
13530 1 0.389581 0.297363 0.166153
28 1 0.435302 0.164741 0.0634317
8780 1 0.46723 0.252281 0.0545477
9750 1 0.48781 0.42552 0.490089
704 1 0.421922 0.287661 0.189516
9773 1 0.431877 0.307978 0.291913
16184 1 0.0948947 0.31515 0.0722223
9162 1 0.0840607 0.214403 0.0392177
11008 1 0.470121 0.291025 0.0525194
4334 1 0.389279 0.454156 0.409471
8093 1 0.00518598 0.332825 0.379653
2798 1 0.0986975 0.373993 0.329311
2719 1 0.0369682 0.208603 0.0833014
1246 1 0.163303 0.228349 0.151392
12277 1 0.0735584 0.250913 0.0504187
818 1 0.0462317 0.143476 0.487252
5475 1 0.290361 0.00372479 0.490056
9539 1 0.187928 0.269836 0.0992472
4979 1 0.327307 0.080134 0.0170603
13631 1 0.364659 0.0861689 0.0156596
6208 1 0.383689 0.476382 0.0229534
780 1 0.149255 0.178468 0.0777567
1197 1 0.0821531 0.187198 0.135086
1077 1 0.190207 0.282743 0.0314153
2497 1 0.277521 0.343917 0.122781
3937 1 0.0958424 0.271409 0.089437
1304 1 0.24487 0.240248 0.176488
7633 1 0.205658 0.271769 0.133276
1307 1 0.198259 0.20367 0.00963884
2622 1 0.142563 0.24865 0.120583
11813 1 0.0776113 0.254598 0.163942
2336 1 0.124942 0.252401 0.153602
2293 1 0.139722 0.281266 0.0948204
9687 1 0.0591615 0.261334 0.117246
3042 1 0.166262 0.258179 0.0190655
1942 1 0.247338 0.0129565 0.294774
272 1 0.0638657 0.0151798 0.477076
4111 1 0.111546 0.0533662 0.432636
8213 1 0.0428086 0.187899 0.461465
1419 1 0.243582 0.232081 0.0274776
5380 1 0.138841 0.125182 0.460375
1106 1 0.200606 0.303144 0.0967576
6220 1 0.212513 0.237901 0.122313
1148 1 0.134652 0.497505 0.183209
2531 1 0.243432 0.250995 0.0631667
8072 1 0.171669 0.328522 0.0894845
3881 1 0.224798 0.308392 0.148261
12665 1 0.45105 0.217599 0.00557965
318 1 0.183853 0.203515 0.0592978
7473 1 0.227767 0.328444 0.0155144
10500 1 0.160364 0.223212 0.0369241
7114 1 0.274331 0.237312 0.0579384
13116 1 0.315853 0.264465 0.107762
7754 1 0.358894 0.234465 0.107493
8265 1 0.35855 0.495847 0.27106
8166 1 0.334188 0.277398 0.132805
11536 1 0.377411 0.337858 0.060852
1355 1 0.364967 0.258923 0.177223
492 1 0.0240822 0.49634 0.179462
8465 1 0.411798 0.223755 0.0548187
2845 1 0.398171 0.213713 0.141639
3949 1 0.33492 0.208567 0.11484
14387 1 0.370386 0.283058 0.0789961
8373 1 0.39681 0.370027 0.0673031
2872 1 0.341171 0.335337 0.152281
11178 1 0.00318952 0.018102 0.0462564
9688 1 0.457789 0.0186063 0.391612
5032 1 0.0251105 0.226861 0.387065
2375 1 0.418303 0.255617 0.0390041
9373 1 0.369729 0.211286 0.0786203
2595 1 0.0794525 0.172495 0.0224046
1399 1 0.0381832 0.197453 0.425951
5725 1 0.36153 0.387709 0.137299
5956 1 0.343469 0.497783 0.235093
7566 1 0.372695 0.48457 0.102396
1968 1 0.463635 0.269781 0.10693
10115 1 0.283641 0.281825 0.104992
8899 1 0.0506787 0.057838 0.0770751
958 1 0.00818863 0.0768789 0.285431
9557 1 0.0638747 0.408993 0.417704
13235 1 0.435674 0.254762 0.0712215
8578 1 0.408263 0.326753 0.0913573
6118 1 0.491345 0.0271162 0.275701
4098 1 0.252488 0.498769 0.264591
13659 1 0.0798242 0.474972 0.4412
241 1 0.00289301 0.396519 0.0291539
10924 1 0.106665 0.477256 0.0623586
1621 1 0.0579521 0.344582 0.46149
9555 1 0.196307 0.0758896 0.489176
6272 1 0.21947 0.150928 0.485761
15168 1 0.462621 0.216751 0.301529
9726 1 0.138482 0.311816 0.0734901
14689 1 0.438945 0.4932 0.279808
625 1 0.0725713 0.494511 0.0767457
550 1 0.0708798 0.418188 0.0344033
8659 1 0.116715 0.445431 0.0845819
9046 1 0.0858643 0.0192317 0.192849
12530 1 0.462012 0.250825 0.317105
12684 1 0.0814829 0.0170693 0.42666
2884 1 0.154368 0.250675 0.0712342
2605 1 0.18128 0.321204 0.0535109
6040 1 0.125114 0.389306 0.0506989
3709 1 0.121958 0.283757 0.00288832
3835 1 0.201199 0.348287 0.0847966
1083 1 0.135876 0.378628 0.0917073
14282 1 0.0758277 0.0339668 0.361079
10379 1 0.211782 0.318255 0.205025
6416 1 0.172591 0.375303 0.0998943
9801 1 0.465084 0.120565 0.380543
3502 1 0.204467 0.335712 0.164094
560 1 0.458839 0.235023 0.349927
4579 1 0.389141 0.0179544 0.0505516
124 1 0.0686699 0.282435 0.0699076
943 1 0.167788 0.290855 0.117742
1879 1 0.0460116 0.408619 0.0861825
13509 1 0.145435 0.429927 0.0465767
2888 1 0.120848 0.343905 0.0772675
9825 1 0.492341 0.497341 0.100881
4695 1 0.391045 0.105245 0.0839177
2674 1 0.159256 0.336113 0.0146467
7023 1 0.240061 0.287088 0.0128224
5993 1 0.297412 0.292131 0.138173
8425 1 0.261035 0.314804 0.0328963
442 1 0.279886 0.358846 0.055396
8440 1 0.296763 0.332008 0.0357662
4187 1 0.335943 0.0787181 0.0856236
13384 1 0.226137 0.413699 0.154634
938 1 0.246385 0.371859 0.0622534
5598 1 0.0142774 0.462635 0.11531
509 1 0.264578 0.00859479 0.345735
1315 1 0.249179 0.388764 0.179918
6616 1 0.240592 0.324515 0.117617
11448 1 0.281389 0.295487 0.0698665
9075 1 0.0919748 0.379029 0.468912
611 1 0.119273 0.487002 0.369668
11429 1 0.251042 0.411278 0.0806481
5499 1 0.058245 0.0139717 0.216898
6304 1 0.262985 0.321306 0.0902061
5205 1 0.301853 0.329513 0.0726336
1287 1 0.273161 0.372023 0.0909747
6449 1 0.293101 0.404663 0.0124003
8620 1 0.336887 0.362988 0.0600364
11053 1 0.413325 0.454425 0.14251
1156 1 0.340385 0.301329 0.10946
10451 1 0.491262 0.184286 0.0304827
1455 1 0.049242 0.41902 0.318311
7027 1 0.367065 0.363143 0.0338791
12227 1 0.331122 0.236189 0.143069
1153 1 0.319402 0.291419 0.0834118
7439 1 0.335076 0.333124 0.0349776
1049 1 0.48316 0.0346399 0.478772
13274 1 0.0904504 0.0328814 0.321437
2006 1 0.173914 0.34593 0.494251
6660 1 0.44137 0.285074 0.161616
2769 1 0.378929 0.401569 0.0196822
5362 1 0.454086 0.322425 0.0459474
8694 1 0.389552 0.158312 0.0477317
2794 1 0.361836 0.371101 0.0869485
12177 1 0.446173 0.29595 0.0775616
11992 1 0.38342 0.251022 0.079204
9930 1 0.495278 0.0869922 0.339166
1449 1 0.426703 0.34087 0.0620057
4382 1 0.0327813 0.0522695 0.260201
9863 1 0.322108 0.272055 0.0150972
4291 1 0.0577956 0.37903 0.0192792
1649 1 0.292692 0.36105 0.00401468
6646 1 0.30022 0.262131 0.0502043
12729 1 0.491616 0.201384 0.494337
9584 1 0.487171 0.39543 0.087645
13851 1 0.0740417 0.445177 0.0723891
1306 1 0.182271 0.481337 0.0816342
4575 1 0.321132 0.418825 0.061144
5706 1 0.138677 0.0516008 0.302457
3043 1 0.336801 0.0593254 0.450984
6325 1 0.282819 0.00429504 0.00300938
11831 1 0.00681783 0.481141 0.438347
12349 1 0.0769557 0.464688 0.134885
374 1 0.369106 0.176595 0.0290206
10364 1 0.195535 0.314411 0.0158307
8412 1 0.477057 0.256613 0.376427
7705 1 0.00738701 0.214873 0.470896
10381 1 0.240003 0.490297 0.0352387
5517 1 0.106512 0.0988969 0.0521347
1714 1 0.106345 0.404423 0.0841899
12788 1 0.439396 0.0717264 0.22745
8709 1 0.0173095 0.184839 0.35929
3428 1 0.0818258 0.05708 0.496103
5688 1 0.296132 0.0401821 0.435833
1248 1 0.488659 0.204937 0.342409
1829 1 0.159559 0.354537 0.0501458
16173 1 0.0965458 0.0171012 0.0539891
134 1 0.0330591 0.423965 0.161894
12823 1 0.188218 0.41539 0.111131
3047 1 0.488722 0.373051 0.0426317
391 1 0.0758327 0.488323 0.207771
12338 1 0.126046 0.487104 0.089057
579 1 0.253047 0.372387 0.0233692
2055 1 0.143692 0.420434 0.109421
14624 1 0.2949 0.452254 0.10942
708 1 0.499599 0.429936 0.0151158
1274 1 0.154186 0.0160767 0.494019
773 1 0.360469 0.220563 0.0267054
2786 1 0.228878 0.45987 0.356936
9538 1 0.0290698 0.187475 0.294309
6839 1 0.28802 0.396315 0.0499564
2410 1 0.19626 0.339062 0.129789
592 1 0.210315 0.356293 0.0424303
1001 1 0.207142 0.385896 0.0863946
2018 1 0.428563 0.00835461 0.422419
4561 1 0.136501 0.325015 0.46476
13182 1 0.207791 0.396473 0.0331659
3430 1 0.485126 0.362682 0.348212
271 1 0.34937 0.428483 0.197362
2649 1 0.316992 0.376848 0.0316022
7643 1 0.0296225 0.0411569 0.149529
10543 1 0.344557 0.408541 0.0252576
15580 1 0.247594 0.46639 0.0638496
15899 1 0.209837 0.0487788 0.0270891
1524 1 0.0131866 0.293578 0.181909
1017 1 0.0163289 0.0412086 0.0753501
10696 1 0.29034 0.436818 0.0293214
1501 1 0.481723 0.203513 0.272785
8789 1 0.476904 0.358791 0.240957
12737 1 0.0333904 0.227806 0.349778
5570 1 0.197147 0.0438198 0.335581
4713 1 0.311241 0.0158699 0.210424
14248 1 0.33005 0.441374 0.101383
1189 1 0.394423 0.0653776 0.0162149
14090 1 0.0160562 0.0832191 0.166761
11382 1 0.0217799 0.0487367 0.480851
2961 1 0.433231 0.400697 0.183984
9303 1 0.419587 0.379633 0.339299
15740 1 0.342461 0.453493 0.0510146
338 1 0.0772954 0.0856324 0.193651
3299 1 0.43527 0.359965 0.491954
1491 1 0.392608 0.453852 0.0548391
3780 1 0.494461 0.192587 0.188197
3353 1 0.254897 0.496065 0.436656
11614 1 0.440104 0.476709 0.117798
8117 1 0.0200885 0.140379 0.392632
5273 1 0.457183 0.401139 0.102785
15083 1 0.369425 0.39839 0.061301
8344 1 0.436827 0.352935 0.244162
11959 1 0.495471 0.431795 0.145932
8257 1 0.470606 0.465909 0.0747149
4160 1 0.172639 0.0583804 0.219689
9642 1 0.336856 0.476631 0.197397
10767 1 0.0126286 0.275626 0.333343
2752 1 0.0822111 0.154196 0.155785
9848 1 0.0389114 0.36191 0.151494
10107 1 0.0835851 0.0703714 0.034896
1454 1 0.428788 0.497396 0.362718
4975 1 0.114578 0.0207373 0.118875
10989 1 0.495039 0.108944 0.0406085
8664 1 0.0688162 0.0802731 0.227697
1096 1 0.0669704 0.0870008 0.0995976
2739 1 0.0356647 0.0807854 0.199201
5169 1 0.142443 0.0155774 0.329862
807 1 0.0761773 0.338414 0.391958
9094 1 0.406343 0.00371725 0.169378
14015 1 0.0786684 0.0293164 0.282307
8287 1 0.113867 0.492836 0.273874
527 1 0.280251 0.479424 0.0386834
521 1 0.111557 0.459213 0.174033
819 1 0.116437 0.037238 0.187562
10441 1 0.155558 0.153848 0.107881
4898 1 0.242747 0.0851388 0.213299
2459 1 0.284606 0.140544 0.117549
2201 1 0.183451 0.0706925 0.187683
2454 1 0.194544 0.110376 0.260652
6423 1 0.129922 0.0739838 0.08626
1439 1 0.381398 0.249926 0.0403155
249 1 0.226941 0.474082 0.23187
8539 1 0.144933 0.043563 0.162402
13571 1 0.209217 0.150948 0.125762
7746 1 0.14976 0.0911548 0.117954
1347 1 0.269361 0.131908 0.149279
580 1 0.0571745 0.441214 0.215747
6204 1 0.29858 0.108161 0.135973
1810 1 0.492332 0.271351 0.311033
5165 1 0.240878 0.0659175 0.133661
1016 1 0.245301 0.192828 0.108238
4280 1 0.338161 0.0377186 0.113499
2405 1 0.305034 0.104242 0.083907
15788 1 0.275068 0.0887723 0.224069
1854 1 0.313623 0.046981 0.272829
3897 1 0.466929 0.185238 0.0716526
783 1 0.283061 0.0311959 0.180923
7418 1 0.216161 0.0601542 0.215556
365 1 0.259941 0.0634113 0.179795
4335 1 0.283299 0.488771 0.0874968
4845 1 0.184384 0.0734686 0.113914
2400 1 0.265093 0.092412 0.134337
5911 1 0.0953811 0.000181907 0.453897
10650 1 0.339813 0.105704 0.131407
578 1 0.37509 0.126215 0.0497045
13479 1 0.378761 0.0909138 0.123473
1639 1 0.491873 0.144111 0.0445051
47 1 0.314456 0.0192184 0.138211
3807 1 0.323199 0.226745 0.181976
13611 1 0.442565 0.121498 0.154336
182 1 0.405592 0.105251 0.157261
7459 1 0.342975 0.14362 0.117203
4176 1 0.390772 0.120807 0.192031
8266 1 0.335918 0.116432 0.0682469
4340 1 0.269342 0.168484 0.0889573
267 1 0.361904 0.129872 0.0924128
8386 1 0.492052 0.149399 0.175855
170 1 0.296398 0.157867 0.148552
8798 1 0.320842 0.182196 0.0784322
935 1 0.422289 0.143615 0.0300205
5841 1 0.36074 0.0269268 0.135297
1597 1 0.207049 0.0549253 0.0628999
1606 1 0.383791 0.0847417 0.178412
9161 1 0.00756642 0.482372 0.142086
9670 1 0.416194 0.0980158 0.191211
4193 1 0.0576253 0.246448 0.0837187
12318 1 0.109996 0.442733 0.14324
7197 1 0.426124 0.0916952 0.128233
4172 1 0.392446 0.0704204 0.145225
7452 1 0.46658 0.461217 0.474212
8989 1 0.40642 0.110563 0.226675
6336 1 0.307493 0.0110792 0.0545729
14028 1 0.486866 0.132881 0.13187
11184 1 0.43427 0.468073 0.491391
4869 1 0.161276 0.0511447 0.329924
13307 1 0.455309 0.073673 0.157472
8610 1 0.493345 0.360261 0.449466
1434 1 0.0908931 0.105641 0.16701
13889 1 0.103277 0.0100108 0.350499
758 1 0.0835191 0.154895 0.117885
9379 1 0.0654075 0.0418644 0.167434
14426 1 0.180624 0.0543545 0.145481
6950 1 0.292657 0.370861 0.491867
10050 1 0.0622274 0.145843 0.203346
603 1 0.0974339 0.233875 0.113807
3948 1 0.0435643 0.207248 0.125
3744 1 0.449201 0.258894 0.0182971
595 1 0.165742 0.133471 0.135627
4585 1 0.397228 0.482022 0.367119
1743 1 0.0550107 0.0801943 0.160992
1838 1 0.479113 0.349558 0.00727076
1292 1 0.00238024 0.173396 0.16947
10384 1 0.190237 0.444 0.3458
3536 1 0.103737 0.0576135 0.114493
433 1 0.0156613 0.192734 0.209502
9485 1 0.160822 0.0342607 0.251857
4886 1 0.169407 0.150119 0.189332
4085 1 0.160894 0.114797 0.168238
12145 1 0.323499 0.0298363 0.178998
30 1 0.181775 0.12541 0.0302948
1187 1 0.126133 0.191112 0.0505484
3098 1 0.108354 0.0758872 0.220751
14485 1 0.149006 0.0844084 0.16754
1803 1 0.192928 0.209012 0.147718
5110 1 0.135075 0.142843 0.0701189
1213 1 0.167896 0.0307355 0.182496
6060 1 0.105599 0.114886 0.0911376
709 1 0.187742 0.25017 0.0566274
4893 1 0.26015 0.159815 0.226299
8800 1 0.120976 0.208774 0.175967
8305 1 0.489799 0.194574 0.306942
10831 1 0.126975 0.13766 0.149565
3347 1 0.179415 0.181075 0.115165
12960 1 0.257132 0.112361 0.100665
9329 1 0.23726 0.293442 0.0960836
5693 1 0.236102 0.123538 0.174618
2921 1 0.204918 0.128837 0.1616
7775 1 0.154546 0.177421 0.144216
6470 1 0.270214 0.153051 0.182119
9431 1 0.178327 0.15806 0.0625849
1311 1 0.256121 0.219454 0.134043
3616 1 0.258317 0.208842 0.172239
7658 1 0.297886 0.0720917 0.162359
4417 1 0.331996 0.0787244 0.24069
7467 1 0.244523 0.183341 0.197648
788 1 0.364848 0.252973 0.211653
1953 1 0.28237 0.202493 0.110794
2608 1 0.217355 0.188407 0.131637
1741 1 0.355885 0.14129 0.164935
4970 1 0.289312 0.274565 0.184795
48 1 0.434992 0.159809 0.109403
1406 1 0.378738 0.168003 0.140928
8487 1 0.334368 0.164121 0.149283
66 1 0.286452 0.192069 0.147355
1835 1 0.370407 0.185909 0.213898
14212 1 0.347897 0.125481 0.200921
10392 1 0.387856 0.220865 0.17621
12501 1 0.376839 0.246721 0.147519
10413 1 0.498787 0.342071 0.176581
5304 1 0.408898 0.142268 0.0817598
13343 1 0.396699 0.0840373 0.268433
4615 1 0.393639 0.211359 0.258448
13568 1 0.252293 0.173383 0.155005
10881 1 0.318893 0.172354 0.245685
1013 1 0.391754 0.281082 0.20178
10004 1 0.482079 0.223391 0.0959091
1182 1 0.451594 0.202477 0.19795
5161 1 0.0245329 0.240555 0.316223
14760 1 0.452705 0.496266 0.492571
14226 1 0.37608 0.12464 0.141759
4453 1 0.41222 0.148452 0.176667
8918 1 0.426073 0.293879 0.0235653
2203 1 0.454052 0.192545 0.156369
4928 1 0.354852 0.216156 0.201628
12836 1 0.45467 0.0232974 0.11706
10655 1 0.483482 0.115092 0.160985
14303 1 0.377834 0.149476 0.221325
11910 1 0.453257 0.229735 0.166816
5833 1 0.069667 0.188234 0.103765
11852 1 0.0781998 0.315794 0.124057
8990 1 0.0932995 0.1125 0.218033
9222 1 0.0499169 0.231494 0.156987
10464 1 0.126814 0.350293 0.0345121
7929 1 0.12968 0.21186 0.131769
8979 1 0.0129947 0.196991 0.138107
10869 1 0.00508525 0.268637 0.216576
3704 1 0.0404154 0.265264 0.166698
14176 1 0.0392112 0.301386 0.0953947
4320 1 0.0704085 0.350508 0.0494543
1415 1 0.0506268 0.191477 0.159969
4121 1 0.0205222 0.266408 0.262058
9531 1 0.0390764 0.423205 0.0453634
14621 1 0.0224764 0.281018 0.057661
5822 1 0.0542602 0.316323 0.0624324
1543 1 0.120581 0.175278 0.116606
1846 1 0.1632 0.261602 0.176291
8702 1 0.0959247 0.121442 0.131012
1827 1 0.0727087 0.149893 0.241297
76 1 0.132008 0.241641 0.191013
13842 1 0.173445 0.222653 0.102061
10062 1 0.0708181 0.245782 0.198834
1333 1 0.180496 0.185423 0.227545
8878 1 0.190464 0.230129 0.196169
4109 1 0.104715 0.248724 0.220984
78 1 0.188517 0.300547 0.154274
13721 1 0.259095 0.270106 0.16295
933 1 0.143964 0.18251 0.234891
4752 1 0.214239 0.239613 0.161946
10225 1 0.105412 0.360608 0.11057
333 1 0.0476119 0.30175 0.191973
250 1 0.172632 0.216472 0.244502
108 1 0.226377 0.282627 0.172335
9308 1 0.270922 0.337264 0.248858
8876 1 0.248712 0.255516 0.121848
2378 1 0.285714 0.213472 0.199535
329 1 0.0472492 0.496925 0.236514
5303 1 0.259624 0.295049 0.126357
177 1 0.305754 0.319304 0.109412
4352 1 0.210405 0.164612 0.0761177
5515 1 0.326997 0.319313 0.226374
1328 1 0.145241 0.279383 0.204557
72 1 0.26165 0.328488 0.211665
2384 1 0.204409 0.228713 0.232219
4373 1 0.307733 0.240335 0.214549
12817 1 0.325106 0.275942 0.207212
607 1 0.16263 0.324203 0.130678
3458 1 0.235401 0.201671 0.236081
10173 1 0.341659 0.286212 0.246978
12359 1 0.419321 0.233553 0.181424
880 1 0.34894 0.2564 0.265341
11588 1 0.414141 0.268223 0.100753
1279 1 0.297507 0.28706 0.234562
2508 1 0.328178 0.31102 0.186212
2386 1 0.263968 0.282611 0.259653
1170 1 0.265542 0.119387 0.494348
15052 1 0.460636 0.439671 0.124091
3402 1 0.398651 0.324638 0.13237
107 1 0.404701 0.266684 0.163902
1088 1 0.358258 0.358981 0.174884
8661 1 0.275872 0.24578 0.100863
2803 1 0.292315 0.213557 0.280797
1309 1 0.193381 0.302442 0.264724
7270 1 0.348155 0.358877 0.127275
11308 1 0.406843 0.360192 0.00695364
16024 1 0.426589 0.0209977 0.0371871
1444 1 0.48941 0.29048 0.161954
8250 1 0.35794 0.301773 0.149753
11601 1 0.389903 0.37259 0.108785
2212 1 0.441282 0.239453 0.221608
9119 1 0.447283 0.277875 0.244871
2609 1 0.427336 0.354234 0.107706
9841 1 0.399633 0.175394 0.244133
15451 1 0.424528 0.299868 0.116214
11304 1 0.386815 0.223842 0.214311
8888 1 0.386633 0.360716 0.146851
629 1 0.287984 0.30058 0.0107712
9514 1 0.456 0.305118 0.135117
539 1 0.20135 0.486533 0.113016
2706 1 0.281076 0.223624 0.0268953
12947 1 0.457036 0.167601 0.0279621
12109 1 0.0790737 0.390544 0.106804
1365 1 0.0718132 0.463661 0.180389
730 1 0.220042 0.442638 0.289676
247 1 0.0459258 0.372688 0.0942404
548 1 0.0306463 0.281977 0.129395
15807 1 0.109192 0.274865 0.0582027
7903 1 0.0664438 0.388123 0.0561861
1538 1 0.0983351 0.377701 0.169065
436 1 0.136032 0.366652 0.138978
7147 1 0.326207 0.146717 0.0536386
8392 1 0.484653 0.497224 0.374667
175 1 0.0685404 0.474405 0.0446804
8189 1 0.0502546 0.26923 0.481142
666 1 0.0569839 0.335543 0.0943797
9078 1 0.314161 0.218278 0.0505537
2569 1 0.0968264 0.0357067 0.0151286
744 1 0.175853 0.448313 0.121177
4664 1 0.176876 0.42826 0.298401
1370 1 0.0954727 0.278251 0.126201
1028 1 0.107887 0.343363 0.182763
8949 1 0.0922351 0.366588 0.204987
6934 1 0.252274 0.263172 0.197313
8891 1 0.0738872 0.355982 0.124878
6854 1 0.107709 0.288916 0.226527
2514 1 0.155818 0.367229 0.223858
8692 1 0.193995 0.419589 0.249152
11377 1 0.187204 0.413484 0.16175
290 1 0.361903 0.271131 0.0208107
907 1 0.127492 0.309441 0.198576
939 1 0.0921704 0.31612 0.210064
621 1 0.0833988 0.415037 0.204569
5655 1 0.11958 0.32608 0.122988
176 1 0.167139 0.332411 0.194501
7281 1 0.148669 0.397827 0.175418
3824 1 0.199362 0.371993 0.15077
1190 1 0.104085 0.301588 0.165615
1121 1 0.237649 0.362094 0.0997689
9190 1 0.263759 0.32602 0.154416
2438 1 0.251547 0.366005 0.146449
456 1 0.251502 0.22845 0.215968
8745 1 0.163466 0.296894 0.178952
5899 1 0.182658 0.339586 0.233141
6464 1 0.259007 0.299163 0.186177
1075 1 0.309978 0.337443 0.253201
4211 1 0.284669 0.381954 0.20146
2783 1 0.310612 0.376555 0.253438
12586 1 0.245033 0.347644 0.276395
6534 1 0.16693 0.388942 0.201817
11746 1 0.295231 0.315437 0.206793
3486 1 0.309217 0.435671 0.239846
14505 1 0.213079 0.437558 0.178048
1688 1 0.346453 0.402497 0.0975163
1422 1 0.37751 0.297042 0.114705
1716 1 0.323617 0.260905 0.168853
8377 1 0.388444 0.316448 0.205382
9975 1 0.324883 0.364703 0.0976712
7711 1 0.271348 0.351176 0.183449
3131 1 0.403011 0.402372 0.211521
4191 1 0.319857 0.404474 0.189522
1816 1 0.39664 0.413614 0.0836172
1753 1 0.367815 0.479488 0.0683607
798 1 0.326952 0.378354 0.158296
12643 1 0.355989 0.345513 0.21086
5847 1 0.300419 0.394953 0.0856692
183 1 0.356529 0.356918 0.311207
9738 1 0.273541 0.441742 0.0675644
3189 1 0.46548 0.00964616 0.458932
4163 1 0.357867 0.406998 0.167782
15924 1 0.34212 0.404185 0.268192
9615 1 0.422921 0.42256 0.114737
8887 1 0.392231 0.445516 0.102776
2016 1 0.362755 0.319696 0.183328
11406 1 0.430682 0.385208 0.128083
6791 1 0.183128 0.388025 0.0615855
1423 1 0.0382615 0.0954734 0.436883
369 1 0.39235 0.374005 0.188758
8925 1 0.283652 0.40146 0.156524
9904 1 0.365188 0.327834 0.290534
12679 1 0.399559 0.0870689 0.478574
8669 1 0.338327 0.329205 0.0795131
2125 1 0.472092 0.371003 0.131003
1141 1 0.467695 0.0452116 0.447556
5671 1 0.0787721 0.424073 0.120601
1305 1 0.0325045 0.456474 0.0563285
12753 1 0.159532 0.46024 0.377195
3328 1 0.296759 0.0195176 0.267141
11327 1 0.481091 0.156782 0.0923369
9201 1 0.0210785 0.437195 0.0896476
5659 1 0.162821 0.386843 0.138098
4 1 0.0393693 0.439897 0.12398
12662 1 0.426536 0.0827574 0.389983
5505 1 0.480071 0.305649 0.496997
1705 1 0.020773 0.387073 0.172813
2978 1 0.0360135 0.309368 0.35354
3213 1 0.418009 0.0114016 0.476471
11636 1 0.233638 0.319396 0.0658922
9590 1 0.496276 0.0832222 0.0982035
6698 1 0.135934 0.32051 0.157131
9058 1 0.426235 0.401108 0.409799
1522 1 0.216781 0.0121097 0.245662
12032 1 0.116191 0.394253 0.209056
4311 1 0.166937 0.46214 0.0237463
12711 1 0.118089 0.4044 0.156779
2885 1 0.0688863 0.387063 0.14097
15912 1 0.0967271 0.478405 0.104002
2855 1 0.127079 0.454398 0.20863
6663 1 0.0827017 0.418195 0.165272
3369 1 0.145036 0.425854 0.149143
256 1 0.21326 0.454275 0.0846997
1976 1 0.00256775 0.155146 0.124619
832 1 0.161723 0.484365 0.115585
4049 1 0.113375 0.408106 0.122542
1010 1 0.262472 0.415889 0.0381056
8730 1 0.21189 0.163858 0.444677
10507 1 0.152163 0.46357 0.163874
12250 1 0.211318 0.371598 0.205694
6435 1 0.158826 0.446971 0.0841765
8384 1 0.25433 0.425781 0.128677
3057 1 0.31152 0.470057 0.135032
8753 1 0.0738703 0.330531 0.351198
7356 1 0.414257 0.183453 0.00870269
6575 1 0.259388 0.457374 0.114184
5013 1 0.225052 0.421066 0.101499
1202 1 0.249196 0.489995 0.105058
10269 1 0.350872 0.450199 0.419112
142 1 0.301622 0.345428 0.155486
13050 1 0.46115 0.068605 0.485634
312 1 0.233015 0.343494 0.193569
5251 1 0.238621 0.123852 0.131433
7131 1 0.283089 0.396166 0.239513
15718 1 0.353228 0.38838 0.205187
3488 1 0.29143 0.356469 0.227086
2020 1 0.252799 0.43281 0.168008
1553 1 0.487478 0.224679 0.063179
4860 1 0.213042 0.444926 0.139697
8160 1 0.376033 0.368477 0.266645
3368 1 0.413378 0.376493 0.256765
5684 1 0.27939 0.394619 0.287928
1731 1 0.0743242 0.483926 0.315158
653 1 0.436339 0.0790336 0.0130247
10660 1 0.493592 0.137777 0.475288
9324 1 0.326494 0.346009 0.187129
1916 1 0.465539 0.1861 0.374577
8968 1 0.498462 0.239559 0.494718
510 1 0.283655 0.403313 0.11978
10422 1 0.366403 0.459596 0.173944
3090 1 0.115598 0.298759 0.480492
10223 1 0.419562 0.43247 0.183169
9436 1 0.450416 0.459727 0.229135
8447 1 0.387568 0.424379 0.143156
8815 1 0.00249817 0.366147 0.400824
3594 1 0.0268355 0.399179 0.288671
11533 1 0.41948 0.440811 0.235128
5448 1 0.289365 0.438503 0.144359
39 1 0.347373 0.396597 0.331609
12125 1 0.391406 0.455079 0.264524
535 1 0.43093 0.461106 0.262909
9200 1 0.314618 0.383151 0.12636
16119 1 0.461566 0.139659 0.314992
10892 1 0.439378 0.429913 0.151772
10157 1 0.494165 0.426315 0.191258
11656 1 0.40391 0.482757 0.165886
14310 1 0.0179166 0.0142431 0.234445
9733 1 0.454451 0.380228 0.351527
6070 1 0.285826 0.00269548 0.230103
6305 1 0.274322 0.49322 0.137736
13748 1 0.115755 0.0837241 0.181421
3691 1 0.0960819 0.025315 0.230247
2086 1 0.0117622 0.144627 0.203369
1623 1 0.00944681 0.161517 0.0500728
11761 1 0.101403 0.128839 0.254544
2457 1 0.258349 0.0731707 0.49024
13292 1 0.103769 0.0573673 0.295903
307 1 0.146033 0.472404 0.0611951
13900 1 0.446311 0.0261311 0.491357
1929 1 0.0288969 0.0759541 0.380581
12064 1 0.108886 0.0331624 0.153215
5491 1 0.0798936 0.112042 0.390157
4167 1 0.225262 0.104267 0.487702
13245 1 0.0894364 0.0686152 0.150256
465 1 0.277066 0.465439 0.331168
1520 1 0.0522504 0.047021 0.116726
8993 1 0.388819 0.49068 0.303507
3375 1 0.153967 0.299348 0.0318925
4443 1 0.0653295 0.0731166 0.362312
8321 1 0.000947135 0.438919 0.458231
2155 1 0.359743 0.480356 0.439316
5915 1 0.206294 0.0633017 0.257771
3416 1 0.0441219 0.379933 0.451139
1124 1 0.0201805 0.415485 0.343971
1512 1 0.124559 0.481261 0.425004
6685 1 0.113074 0.170453 0.233388
2077 1 0.277751 0.0406251 0.333389
2970 1 0.146877 0.0667883 0.1978
14182 1 0.0352701 0.236112 0.489125
9772 1 0.13077 0.0414795 0.224195
1056 1 0.112602 0.175713 0.0166359
4962 1 0.038239 0.0901734 0.346683
12143 1 0.0344955 0.345712 0.0574226
5197 1 0.26827 0.101723 0.186206
1876 1 0.315351 0.109547 0.172948
4105 1 0.203206 0.0139546 0.205119
5761 1 0.240986 0.0521076 0.26081
10304 1 0.496214 0.152432 0.31339
4241 1 0.292354 0.0971298 0.261289
2124 1 0.242559 0.0879231 0.248408
1389 1 0.0275904 0.336035 0.286883
4816 1 0.223223 0.133949 0.244009
5000 1 0.249772 0.0382861 0.218275